# vtk DataFile Version 5.1
vtk output
ASCII
DATASET POLYDATA
POINTS 29400 float
93 93 92.502 93 92.502 93 92.502 93 93 
94 93 92.502 94 92.502 93 95 93 92.502 
95 92.502 93 96 93 92.502 96 92.502 93 
97 93 92.502 97 92.502 93 98 93 92.502 
98 92.502 93 99 93 92.502 99 92.502 93 
100 93 92.502 100 92.502 93 101 93 92.502 
101 92.502 93 102 93 92.502 102 92.502 93 
103 93 92.502 103 92.502 93 104 93 92.502 
104 92.502 93 105 93 92.502 105 92.502 93 
106 93 92.502 106 92.502 93 107 93 92.502 
107 92.502 93 108 93 92.502 108 92.502 93 
109 93 92.502 109 92.502 93 110 93 92.502 
110 92.502 93 111 93 92.502 111 92.502 93 
112 93 92.502 112 92.502 93 113 93 92.502 
113 92.502 93 114 93 92.502 114 92.502 93 
115 93 92.502 115 92.502 93 116 93 92.502 
116 92.502 93 117 93 92.502 117 92.502 93 
118 93 92.502 118 92.502 93 119 93 92.502 
119 92.502 93 120 93 92.502 120 92.502 93 
121 93 92.502 121 92.502 93 122 93 92.502 
122 92.502 93 123 93 92.502 123 92.502 93 
124 93 92.502 124 92.502 93 125 93 92.502 
125 92.502 93 126 93 92.502 126 92.502 93 
127 93 92.502 127 92.502 93 128 93 92.502 
128 92.502 93 129 93 92.502 129 92.502 93 
130 93 92.502 130 92.502 93 131 93 92.502 
131 92.502 93 132 93 92.502 132 92.502 93 
133 93 92.502 133 92.502 93 134 93 92.502 
134 92.502 93 135 93 92.502 135 92.502 93 
136 93 92.502 136 92.502 93 137 93 92.502 
137 92.502 93 138 93 92.502 138 92.502 93 
139 93 92.502 139 92.502 93 140 93 92.502 
140 92.502 93 141 93 92.502 141 92.502 93 
142 93 92.502 142 92.502 93 143 93 92.502 
143 92.502 93 144 93 92.502 144 92.502 93 
145 93 92.502 145 92.502 93 146 93 92.502 
146 92.502 93 147 93 92.502 147 92.502 93 
148 93 92.502 148 92.502 93 149 93 92.502 
149 92.502 93 150 93 92.502 150 92.502 93 
151 93 92.502 151 92.502 93 152 93 92.502 
152 92.502 93 153 93 92.502 153 92.502 93 
154 93 92.502 154 92.502 93 155 93 92.502 
155 92.502 93 156 93 92.502 156 92.502 93 
157 93 92.502 157 92.502 93 158 93 92.502 
158 92.502 93 159 93 92.502 159 92.502 93 
160 93 92.502 160 92.502 93 161 93 92.502 
161 92.502 93 162 93 92.502 162 92.502 93 
162.498 93 93 93 94 92.502 92.502 94 93 
94 94 92.502 95 94 92.502 96 94 92.502 
97 94 92.502 98 94 92.502 99 94 92.502 
100 94 92.502 101 94 92.502 102 94 92.502 
103 94 92.502 104 94 92.502 105 94 92.502 
106 94 92.502 107 94 92.502 108 94 92.502 
109 94 92.502 110 94 92.502 111 94 92.502 
112 94 92.502 113 94 92.502 114 94 92.502 
115 94 92.502 116 94 92.502 117 94 92.502 
118 94 92.502 119 94 92.502 120 94 92.502 
121 94 92.502 122 94 92.502 123 94 92.502 
124 94 92.502 125 94 92.502 126 94 92.502 
127 94 92.502 128 94 92.502 129 94 92.502 
130 94 92.502 131 94 92.502 132 94 92.502 
133 94 92.502 134 94 92.502 135 94 92.502 
136 94 92.502 137 94 92.502 138 94 92.502 
139 94 92.502 140 94 92.502 141 94 92.502 
142 94 92.502 143 94 92.502 144 94 92.502 
145 94 92.502 146 94 92.502 147 94 92.502 
148 94 92.502 149 94 92.502 150 94 92.502 
151 94 92.502 152 94 92.502 153 94 92.502 
154 94 92.502 155 94 92.502 156 94 92.502 
157 94 92.502 158 94 92.502 159 94 92.502 
160 94 92.502 161 94 92.502 162 94 92.502 
162.498 94 93 93 95 92.502 92.502 95 93 
94 95 92.502 95 95 92.502 96 95 92.502 
97 95 92.502 98 95 92.502 99 95 92.502 
100 95 92.502 101 95 92.502 102 95 92.502 
103 95 92.502 104 95 92.502 105 95 92.502 
106 95 92.502 107 95 92.502 108 95 92.502 
109 95 92.502 110 95 92.502 111 95 92.502 
112 95 92.502 113 95 92.502 114 95 92.502 
115 95 92.502 116 95 92.502 117 95 92.502 
118 95 92.502 119 95 92.502 120 95 92.502 
121 95 92.502 122 95 92.502 123 95 92.502 
124 95 92.502 125 95 92.502 126 95 92.502 
127 95 92.502 128 95 92.502 129 95 92.502 
130 95 92.502 131 95 92.502 132 95 92.502 
133 95 92.502 134 95 92.502 135 95 92.502 
136 95 92.502 137 95 92.502 138 95 92.502 
139 95 92.502 140 95 92.502 141 95 92.502 
142 95 92.502 143 95 92.502 144 95 92.502 
145 95 92.502 146 95 92.502 147 95 92.502 
148 95 92.502 149 95 92.502 150 95 92.502 
151 95 92.502 152 95 92.502 153 95 92.502 
154 95 92.502 155 95 92.502 156 95 92.502 
157 95 92.502 158 95 92.502 159 95 92.502 
160 95 92.502 161 95 92.502 162 95 92.502 
162.498 95 93 93 96 92.502 92.502 96 93 
94 96 92.502 95 96 92.502 96 96 92.502 
97 96 92.502 98 96 92.502 99 96 92.502 
100 96 92.502 101 96 92.502 102 96 92.502 
103 96 92.502 104 96 92.502 105 96 92.502 
106 96 92.502 107 96 92.502 108 96 92.502 
109 96 92.502 110 96 92.502 111 96 92.502 
112 96 92.502 113 96 92.502 114 96 92.502 
115 96 92.502 116 96 92.502 117 96 92.502 
118 96 92.502 119 96 92.502 120 96 92.502 
121 96 92.502 122 96 92.502 123 96 92.502 
124 96 92.502 125 96 92.502 126 96 92.502 
127 96 92.502 128 96 92.502 129 96 92.502 
130 96 92.502 131 96 92.502 132 96 92.502 
133 96 92.502 134 96 92.502 135 96 92.502 
136 96 92.502 137 96 92.502 138 96 92.502 
139 96 92.502 140 96 92.502 141 96 92.502 
142 96 92.502 143 96 92.502 144 96 92.502 
145 96 92.502 146 96 92.502 147 96 92.502 
148 96 92.502 149 96 92.502 150 96 92.502 
151 96 92.502 152 96 92.502 153 96 92.502 
154 96 92.502 155 96 92.502 156 96 92.502 
157 96 92.502 158 96 92.502 159 96 92.502 
160 96 92.502 161 96 92.502 162 96 92.502 
162.498 96 93 93 97 92.502 92.502 97 93 
94 97 92.502 95 97 92.502 96 97 92.502 
97 97 92.502 98 97 92.502 99 97 92.502 
100 97 92.502 101 97 92.502 102 97 92.502 
103 97 92.502 104 97 92.502 105 97 92.502 
106 97 92.502 107 97 92.502 108 97 92.502 
109 97 92.502 110 97 92.502 111 97 92.502 
112 97 92.502 113 97 92.502 114 97 92.502 
115 97 92.502 116 97 92.502 117 97 92.502 
118 97 92.502 119 97 92.502 120 97 92.502 
121 97 92.502 122 97 92.502 123 97 92.502 
124 97 92.502 125 97 92.502 126 97 92.502 
127 97 92.502 128 97 92.502 129 97 92.502 
130 97 92.502 131 97 92.502 132 97 92.502 
133 97 92.502 134 97 92.502 135 97 92.502 
136 97 92.502 137 97 92.502 138 97 92.502 
139 97 92.502 140 97 92.502 141 97 92.502 
142 97 92.502 143 97 92.502 144 97 92.502 
145 97 92.502 146 97 92.502 147 97 92.502 
148 97 92.502 149 97 92.502 150 97 92.502 
151 97 92.502 152 97 92.502 153 97 92.502 
154 97 92.502 155 97 92.502 156 97 92.502 
157 97 92.502 158 97 92.502 159 97 92.502 
160 97 92.502 161 97 92.502 162 97 92.502 
162.498 97 93 93 98 92.502 92.502 98 93 
94 98 92.502 95 98 92.502 96 98 92.502 
97 98 92.502 98 98 92.502 99 98 92.502 
100 98 92.502 101 98 92.502 102 98 92.502 
103 98 92.502 104 98 92.502 105 98 92.502 
106 98 92.502 107 98 92.502 108 98 92.502 
109 98 92.502 110 98 92.502 111 98 92.502 
112 98 92.502 113 98 92.502 114 98 92.502 
115 98 92.502 116 98 92.502 117 98 92.502 
118 98 92.502 119 98 92.502 120 98 92.502 
121 98 92.502 122 98 92.502 123 98 92.502 
124 98 92.502 125 98 92.502 126 98 92.502 
127 98 92.502 128 98 92.502 129 98 92.502 
130 98 92.502 131 98 92.502 132 98 92.502 
133 98 92.502 134 98 92.502 135 98 92.502 
136 98 92.502 137 98 92.502 138 98 92.502 
139 98 92.502 140 98 92.502 141 98 92.502 
142 98 92.502 143 98 92.502 144 98 92.502 
145 98 92.502 146 98 92.502 147 98 92.502 
148 98 92.502 149 98 92.502 150 98 92.502 
151 98 92.502 152 98 92.502 153 98 92.502 
154 98 92.502 155 98 92.502 156 98 92.502 
157 98 92.502 158 98 92.502 159 98 92.502 
160 98 92.502 161 98 92.502 162 98 92.502 
162.498 98 93 93 99 92.502 92.502 99 93 
94 99 92.502 95 99 92.502 96 99 92.502 
97 99 92.502 98 99 92.502 99 99 92.502 
100 99 92.502 101 99 92.502 102 99 92.502 
103 99 92.502 104 99 92.502 105 99 92.502 
106 99 92.502 107 99 92.502 108 99 92.502 
109 99 92.502 110 99 92.502 111 99 92.502 
112 99 92.502 113 99 92.502 114 99 92.502 
115 99 92.502 116 99 92.502 117 99 92.502 
118 99 92.502 119 99 92.502 120 99 92.502 
121 99 92.502 122 99 92.502 123 99 92.502 
124 99 92.502 125 99 92.502 126 99 92.502 
127 99 92.502 128 99 92.502 129 99 92.502 
130 99 92.502 131 99 92.502 132 99 92.502 
133 99 92.502 134 99 92.502 135 99 92.502 
136 99 92.502 137 99 92.502 138 99 92.502 
139 99 92.502 140 99 92.502 141 99 92.502 
142 99 92.502 143 99 92.502 144 99 92.502 
145 99 92.502 146 99 92.502 147 99 92.502 
148 99 92.502 149 99 92.502 150 99 92.502 
151 99 92.502 152 99 92.502 153 99 92.502 
154 99 92.502 155 99 92.502 156 99 92.502 
157 99 92.502 158 99 92.502 159 99 92.502 
160 99 92.502 161 99 92.502 162 99 92.502 
162.498 99 93 93 100 92.502 92.502 100 93 
94 100 92.502 95 100 92.502 96 100 92.502 
97 100 92.502 98 100 92.502 99 100 92.502 
100 100 92.502 101 100 92.502 102 100 92.502 
103 100 92.502 104 100 92.502 105 100 92.502 
106 100 92.502 107 100 92.502 108 100 92.502 
109 100 92.502 110 100 92.502 111 100 92.502 
112 100 92.502 113 100 92.502 114 100 92.502 
115 100 92.502 116 100 92.502 117 100 92.502 
118 100 92.502 119 100 92.502 120 100 92.502 
121 100 92.502 122 100 92.502 123 100 92.502 
124 100 92.502 125 100 92.502 126 100 92.502 
127 100 92.502 128 100 92.502 129 100 92.502 
130 100 92.502 131 100 92.502 132 100 92.502 
133 100 92.502 134 100 92.502 135 100 92.502 
136 100 92.502 137 100 92.502 138 100 92.502 
139 100 92.502 140 100 92.502 141 100 92.502 
142 100 92.502 143 100 92.502 144 100 92.502 
145 100 92.502 146 100 92.502 147 100 92.502 
148 100 92.502 149 100 92.502 150 100 92.502 
151 100 92.502 152 100 92.502 153 100 92.502 
154 100 92.502 155 100 92.502 156 100 92.502 
157 100 92.502 158 100 92.502 159 100 92.502 
160 100 92.502 161 100 92.502 162 100 92.502 
162.498 100 93 93 101 92.502 92.502 101 93 
94 101 92.502 95 101 92.502 96 101 92.502 
97 101 92.502 98 101 92.502 99 101 92.502 
100 101 92.502 101 101 92.502 102 101 92.502 
103 101 92.502 104 101 92.502 105 101 92.502 
106 101 92.502 107 101 92.502 108 101 92.502 
109 101 92.502 110 101 92.502 111 101 92.502 
112 101 92.502 113 101 92.502 114 101 92.502 
115 101 92.502 116 101 92.502 117 101 92.502 
118 101 92.502 119 101 92.502 120 101 92.502 
121 101 92.502 122 101 92.502 123 101 92.502 
124 101 92.502 125 101 92.502 126 101 92.502 
127 101 92.502 128 101 92.502 129 101 92.502 
130 101 92.502 131 101 92.502 132 101 92.502 
[...]
POINT_DATA 29400
SCALARS scalars float
LOOKUP_TABLE default
128 128 128 128 128 128 128 128 128 
128 128 128 128 128 128 128 128 128 
128 128 128 128 128 128 128 128 128 
128 128 128 128 128 128 128 128 128 
128 128 128 128 128 128 128 128 128 
128 128 128 128 128 128 128 128 128 
128 128 128 128 128 128 128 128 128 
128 128 128 128 128 128 128 128 128 
128 128 128 128 128 128 128 128 128 
128 128 128 128 128 128 128 128 128 
128 128 128 128 128 128 128 128 128 
128 128 128 128 128 128 128 128 128 
128 128 128 128 128 128 128 128 128 
128 128 128 128 128 128 128 128 128 
128 128 128 128 128 128 128 128 128 
128 128 128 128 128 128 128 128 128 
128 128 128 128 128 128 128 128 128 
128 128 128 128 128 128 128 128 128 
128 128 128 128 128 128 128 128 128 
128 128 128 128 128 128 128 128 128 
128 128 128 128 128 128 128 128 128 
128 128 128 128 128 128 128 128 128 
128 128 128 128 128 128 128 128 128 
128 128 128 128 128 128 128 128 128 
128 128 128 128 128 128 128 128 128 
128 128 128 128 128 128 128 128 128 
128 128 128 128 128 128 128 128 128 
128 128 128 128 128 128 128 128 128 
128 128 128 128 128 128 128 128 128 
128 128 128 128 128 128 128 128 128 
128 128 128 128 128 128 128 128 128 
128 128 128 128 128 128 128 128 128 
128 128 128 128 128 128 128 128 128 
128 128 128 128 128 128 128 128 128 
128 128 128 128 128 128 128 128 128 
128 128 128 128 128 128 128 128 128 
128 128 128 128 128 128 128 128 128 
128 128 128 128 128 128 128 128 128 
128 128 128 128 128 128 128 128 128 
128 128 128 128 128 128 128 128 128 
128 128 128 128 128 128 128 128 128 
128 128 128 128 128 128 128 128 128 
128 128 128 128 128 128 128 128 128 
128 128 128 128 128 128 128 128 128 
128 128 128 128 128 128 128 128 128 
128 128 128 128 128 128 128 128 128 
128 128 128 128 128 128 128 128 128 
128 128 128 128 128 128 128 128 128 
128 128 128 128 128 128 128 128 128 
128 128 128 128 128 128 128 128 128 
128 128 128 128 128 128 128 128 128 
128 128 128 128 128 128 128 128 128 
128 128 128 128 128 128 128 128 128 
128 128 128 128 128 128 128 128 128 
128 128 128 128 128 128 128 128 128 
128 128 128 128 128 128 128 128 128 
128 128 128 128 128 128 128 128 128 
128 128 128 128 128 128 128 128 128 
128 128 128 128 128 128 128 128 128 
128 128 128 128 128 128 128 128 128 
128 128 128 128 128 128 128 128 128 
128 128 128 128 128 128 128 128 128 
128 128 128 128 128 128 128 128 128 
128 128 128 128 128 128 128 128 128 
128 128 128 128 128 128 128 128 128 
128 128 128 128 128 128 128 128 128 
128 128 128 128 128 128 128 128 128 
128 128 128 128 128 128 128 128 128 
128 128 128 128 128 128 128 128 128 
128 128 128 128 128 128 128 128 128 
128 128 128 128 128 128 128 128 128 
128 128 128 128 128 128 128 128 128 
128 128 128 128 128 128 128 128 128 
128 128 128 128 128 128 128 128 128 
128 128 128 128 128 128 128 128 128 
128 128 128 128 128 128 128 128 128 
128 128 128 128 128 128 128 128 128 
128 128 128 128 128 128 128 128 128 
128 128 128 128 128 128 128 128 128 
128 128 128 128 128 128 128 128 128 
128 128 128 128 128 128 128 128 128 
128 128 128 128 128 128 128 128 128 
128 128 128 128 128 128 128 128 128 
128 128 128 128 128 128 128 128 128 
128 128 128 128 128 128 128 128 128 
128 128 128 128 128 128 128 128 128 
128 128 128 128 128 128 128 128 128 
128 128 128 128 128 128 128 128 128 
128 128 128 128 128 128 128 128 128 
128 128 128 128 128 128 128 128 128 
128 128 128 128 128 128 128 128 128 
128 128 128 128 128 128 128 128 128 
128 128 128 128 128 128 128 128 128 
128 128 128 128 128 128 128 128 128 
128 128 128 128 128 128 128 128 128 
128 128 128 128 128 128 128 128 128 
128 128 128 128 128 128 128 128 128 
128 128 128 128 128 128 128 128 128 
128 128 128 128 128 128 128 128 128 
128 128 128 128 128 128 128 128 128 
128 128 128 128 128 128 128 128 128 
128 128 128 128 128 128 128 128 128 
128 128 128 128 128 128 128 128 128 
128 128 128 128 128 128 128 128 128 
128 128 128 128 128 128 128 128 128 
128 128 128 128 128 128 128 128 128 
128 128 128 128 128 128 128 128 128 
128 128 128 128 128 128 128 128 128 
128 128 128 128 128 128 128 128 128 
128 128 128 128 128 128 128 128 128 
128 128 128 128 128 128 128 128 128 
128 128 128 128 128 128 128 128 128 
128 128 128 128 128 128 128 128 128 
128 128 128 128 128 128 128 128 128 
128 128 128 128 128 128 128 128 128 
128 128 128 128 128 128 128 128 128 
128 128 128 128 128 128 128 128 128 
128 128 128 128 128 128 128 128 128 
128 128 128 128 128 128 128 128 128 
128 128 128 128 128 128 128 128 128 
128 128 128 128 128 128 128 128 128 
128 128 128 128 128 128 128 128 128 
128 128 128 128 128 128 128 128 128 
128 128 128 128 128 128 128 128 128 
128 128 128 128 128 128 128 128 128 
128 128 128 128 128 128 128 128 128 
128 128 128 128 128 128 128 128 128 
128 128 128 128 128 128 128 128 128 
128 128 128 128 128 128 128 128 128 
128 128 128 128 128 128 128 128 128 
128 128 128 128 128 128 128 128 128 
128 128 128 128 128 128 128 128 128 
128 128 128 128 128 128 128 128 128 
128 128 128 128 128 128 128 128 128 
128 128 128 128 128 128 128 128 128 
128 128 128 128 128 128 128 128 128 
128 128 128 128 128 128 128 128 128 
128 128 128 128 128 128 128 128 128 
128 128 128 128 128 128 128 128 128 
128 128 128 128 128 128 128 128 128 
128 128 128 128 128 128 128 128 128 
128 128 128 128 128 128 128 128 128 
128 128 128 128 128 128 128 128 128 
128 128 128 128 128 128 128 128 128 
128 128 128 128 128 128 128 128 128 
128 128 128 128 128 128 128 128 128 
128 128 128 128 128 128 128 128 128 
128 128 128 128 128 128 128 128 128 
128 128 128 128 128 128 128 128 128 
128 128 128 128 128 128 128 128 128 
128 128 128 128 128 128 128 128 128 
128 128 128 128 128 128 128 128 128 
128 128 128 128 128 128 128 128 128 
128 128 128 128 128 128 128 128 128 
128 128 128 128 128 128 128 128 128 
128 128 128 128 128 128 128 128 128 
128 128 128 128 128 128 128 128 128 
128 128 128 128 128 128 128 128 128 
128 128 128 128 128 128 128 128 128 
128 128 128 128 128 128 128 128 128 
128 128 128 128 128 128 128 128 128 
128 128 128 128 128 128 128 128 128 
128 128 128 128 128 128 128 128 128 
128 128 128 128 128 128 128 128 128 
128 128 128 128 128 128 128 128 128 
128 128 128 128 128 128 128 128 128 
128 128 128 128 128 128 128 128 128 
128 128 128 128 128 128 128 128 128 
128 128 128 128 128 128 128 128 128 
128 128 128 128 128 128 128 128 128 
128 128 128 128 128 128 128 128 128 
128 128 128 128 128 128 128 128 128 
128 128 128 128 128 128 128 128 128 
128 128 128 128 128 128 128 128 128 
128 128 128 128 128 128 128 128 128 
128 128 128 128 128 128 128 128 128 
128 128 128 128 128 128 128 128 128 
128 128 128 128 128 128 128 128 128 
128 128 128 128 128 128 128 128 128 
128 128 128 128 128 128 128 128 128 
128 128 128 128 128 128 128 128 128 
128 128 128 128 128 128 128 128 128 
128 128 128 128 128 128 128 128 128 
128 128 128 128 128 128 128 128 128 
128 128 128 128 128 128 128 128 128 
128 128 128 128 128 128 128 128 128 
128 128 128 128 128 128 128 128 128 
128 128 128 128 128 128 128 128 128 
128 128 128 128 128 128 128 128 128 
128 128 128 128 128 128 128 128 128 
128 128 128 128 128 128 128 128 128 
128 128 128 128 128 128 128 128 128 
128 128 128 128 128 128 128 128 128 
128 128 128 128 128 128 128 128 128 
128 128 128 128 128 128 128 128 128 
128 128 128 128 128 128 128 128 128 
128 128 128 128 128 128 128 128 128 
128 128 128 128 128 128 128 128 128 
128 128 128 128 128 128 128 128 128 
128 128 128 128 128 128 128 128 128 
128 128 128 128 128 128 128 128 128 
128 128 128 128 128 128 128 128 128 
128 128 128 128 128 128 128 128 128 
128 128 128 128 128 128 128 128 128 
128 128 128 128 128 128 128 128 128 
128 128 128 128 128 128 128 128 128 
128 128 128 128 128 128 128 128 128 
128 128 128 128 128 128 128 128 128 
128 128 128 128 128 128 128 128 128 
128 128 128 128 128 128 128 128 128 
128 128 128 128 128 128 128 128 128 
128 128 128 128 128 128 128 128 128 
128 128 128 128 128 128 128 128 128 
128 128 128 128 128 128 128 128 128 
128 128 128 128 128 128 128 128 128 
128 128 128 128 128 128 128 128 128 
128 128 128 128 128 128 128 128 128 
128 128 128 128 128 128 128 128 128 
128 128 128 128 128 128 128 128 128 
128 128 128 128 128 128 128 128 128 
128 128 128 128 128 128 128 128 128 
128 128 128 128 128 128 128 128 128 
128 128 128 128 128 128 128 128 128 
128 128 128 128 128 128 128 128 128 
128 128 128 128 128 128 128 128 128 
128 128 128 128 128 128 128 128 128 
128 128 128 128 128 128 128 128 128 
128 128 128 128 128 128 128 128 128 
128 128 128 128 128 128 128 128 128 
128 128 128 128 128 128 128 128 128 
128 128 128 128 128 128 128 128 128 
128 128 128 128 128 128 128 128 128 
128 128 128 128 128 128 128 128 128 
128 128 128 128 128 128 128 128 128 
128 128 128 128 128 128 128 128 128 
128 128 128 128 128 128 128 128 128 
128 128 128 128 128 128 128 128 128 
128 128 128 128 128 128 128 128 128 
128 128 128 128 128 128 128 128 128 
128 128 128 128 128 128 128 128 128 
128 128 128 128 128 128 128 128 128 
128 128 128 128 128 128 128 128 128 
128 128 128 128 128 128 128 128 128 
128 128 128 128 128 128 128 128 128 
128 128 128 128 128 128 128 128 128 
128 128 128 128 128 128 128 128 128 
128 128 128 128 128 128 128 128 128 
128 128 128 128 128 128 128 128 128 
128 128 128 128 128 128 128 128 128 
128 128 128 128 128 128 128 128 128 
128 128 128 128 128 128 128 128 128 
128 128 128 128 128 128 128 128 128 
128 128 128 128 128 128 128 128 128 
128 128 128 128 128 128 128 128 128 
128 128 128 128 128 128 128 128 128 
128 128 128 128 128 128 128 128 128 
128 128 128 128 128 128 128 128 128 
128 128 128 128 128 128 128 128 128 
128 128 128 128 128 128 128 128 128 
128 128 128 128 128 128 128 128 128 
128 128 128 128 128 128 128 128 128 
128 128 128 128 128 128 128 128 128 
128 128 128 128 128 128 128 128 128 
128 128 128 128 128 128 128 128 128 
128 128 128 128 128 128 128 128 128 
128 128 128 128 128 128 128 128 128 
128 128 128 128 128 128 128 128 128 
128 128 128 128 128 128 128 128 128 
128 128 128 128 128 128 128 128 128 
128 128 128 128 128 128 128 128 128 
128 128 128 128 128 128 128 128 128 
128 128 128 128 128 128 128 128 128 
128 128 128 128 128 128 128 128 128 
128 128 128 128 128 128 128 128 128 
128 128 128 128 128 128 128 128 128 
128 128 128 128 128 128 128 128 128 
128 128 128 128 128 128 128 128 128 
128 128 128 128 128 128 128 128 128 
128 128 128 128 128 128 128 128 128 
128 128 128 128 128 128 128 128 128 
128 128 128 128 128 128 128 128 128 
128 128 128 128 128 128 128 128 128 
128 128 128 128 128 128 128 128 128 
128 128 128 128 128 128 128 128 128 
128 128 128 128 128 128 128 128 128 
128 128 128 128 128 128 128 128 128 
128 128 128 128 128 128 128 128 128 
128 128 128 128 128 128 128 128 128 
128 128 128 128 128 128 128 128 128 
128 128 128 128 128 128 128 128 128 
128 128 128 128 128 128 128 128 128 
128 128 128 128 128 128 128 128 128 
128 128 128 128 128 128 128 128 128 
128 128 128 128 128 128 128 128 128 
128 128 128 128 128 128 128 128 128 
128 128 128 128 128 128 128 128 128 
128 128 128 128 128 128 128 128 128 
128 128 128 128 128 128 128 128 128 
128 128 128 128 128 128 128 128 128 
128 128 128 128 128 128 128 128 128 
128 128 128 128 128 128 128 128 128 
128 128 128 128 128 128 128 128 128 
128 128 128 128 128 128 128 128 128 
128 128 128 128 128 128 128 128 128 
128 128 128 128 128 128 128 128 128 
128 128 128 128 128 128 128 128 128 
128 128 128 128 128 128 128 128 128 
128 128 128 128 128 128 128 128 128 
128 128 128 128 128 128 128 128 128 
128 128 128 128 128 128 128 128 128 
128 128 128 128 128 128 128 128 128 
128 128 128 128 128 128 128 128 128 
128 128 128 128 128 128 128 128 128 
128 128 128 128 128 128 128 128 128 
128 128 128 128 128 128 128 128 128 
128 128 128 128 128 128 128 128 128 
128 128 128 128 128 128 128 128 128 
128 128 128 128 128 128 128 128 128 
128 128 128 128 128 128 128 128 128 
128 128 128 128 128 128 128 128 128 
128 128 128 128 128 128 128 128 128 
128 128 128 128 128 128 128 128 128 
128 128 128 128 128 128 128 128 128 
128 128 128 128 128 128 128 128 128 
128 128 128 128 128 128 128 128 128 
128 128 128 128 128 128 128 128 128 
128 128 128 128 128 128 128 128 128 
128 128 128 128 128 128 128 128 128 
128 128 128 128 128 128 128 128 128 
128 128 128 128 128 128 128 128 128 
128 128 128 128 128 128 128 128 128 
128 128 128 128 128 128 128 128 128 
128 128 128 128 128 128 128 128 128 
128 128 128 128 128 128 128 128 128 
128 128 128 128 128 128 128 128 128 
128 128 128 128 128 128 128 128 128 
128 128 128 128 128 128 128 128 128 
128 128 128 128 128 128 128 128 128 
128 128 128 128 128 128 128 128 128 
128 128 128 128 128 128 128 128 128 
128 128 128 128 128 128 128 128 128 
128 128 128 128 128 128 128 128 128 
128 128 128 128 128 128 128 128 128 
128 128 128 128 128 128 128 128 128 
128 128 128 128 128 128 128 128 128 
128 128 128 128 128 128 128 128 128 
128 128 128 128 128 128 128 128 128 
128 128 128 128 128 128 128 128 128 
128 128 128 128 128 128 128 128 128 
128 128 128 128 128 128 128 128 128 
128 128 128 128 128 128 128 128 128 
128 128 128 128 128 128 128 128 128 
128 128 128 128 128 128 128 128 128 
128 128 128 128 128 128 128 128 128 
128 128 128 128 128 128 128 128 128 
128 128 128 128 128 128 128 128 128 
128 128 128 128 128 128 128 128 128 
128 128 128 128 128 128 128 128 128 
128 128 128 128 128 128 128 128 128 
128 128 128 128 128 128 128 128 128 
128 128 128 128 128 128 128 128 128 
128 128 128 128 128 128 128 128 128 
128 128 128 128 128 128 128 128 128 
128 128 128 128 128 128 128 128 128 
128 128 128 128 128 128 128 128 128 
128 128 128 128 128 128 128 128 128 
128 128 128 128 128 128 128 128 128 
128 128 128 128 128 128 128 128 128 
128 128 128 128 128 128 128 128 128 
128 128 128 128 128 128 128 128 128 
128 128 128 128 128 128 128 128 128 
128 128 128 128 128 128 128 128 128 
128 128 128 128 128 128 128 128 128 
128 128 128 128 128 128 128 128 128 
128 128 128 128 128 128 128 128 128 
128 128 128 128 128 128 128 128 128 
128 128 128 128 128 128 128 128 128 
128 128 128 128 128 128 128 128 128 
128 128 128 128 128 128 128 128 128 
128 128 128 128 128 128 128 128 128 
128 128 128 128 128 128 128 128 128 
128 128 128 128 128 128 128 128 128 
128 128 128 128 128 128 128 128 128 
128 128 128 128 128 128 128 128 128 
128 128 128 128 128 128 128 128 128 
128 128 128 128 128 128 128 128 128 
128 128 128 128 128 128 128 128 128 
128 128 128 128 128 128 128 128 128 
128 128 128 128 128 128 128 128 128 
128 128 128 128 128 128 128 128 128 
128 128 128 128 128 128 128 128 128 
128 128 128 128 128 128 128 128 128 
128 128 128 128 128 128 128 128 128 
128 128 128 128 128 128 128 128 128 
128 128 128 128 128 128 128 128 128 
128 128 128 128 128 128 128 128 128 
128 128 128 128 128 128 128 128 128 
128 128 128 128 128 128 128 128 128 
128 128 128 128 128 128 128 128 128 
128 128 128 128 128 128 128 128 128 
128 128 128 128 128 128 128 128 128 
128 128 128 128 128 128 128 128 128 
128 128 128 128 128 128 128 128 128 
128 128 128 128 128 128 128 128 128 
128 128 128 128 128 128 128 128 128 
128 128 128 128 128 128 128 128 128 
128 128 128 128 128 128 128 128 128 
128 128 128 128 128 128 128 128 128 
128 128 128 128 128 128 128 128 128 
128 128 128 128 128 128 128 128 128 
128 128 128 128 128 128 128 128 128 
128 128 128 128 128 128 128 128 128 
128 128 128 128 128 128 128 128 128 
128 128 128 128 128 128 128 128 128 
128 128 128 128 128 128 128 128 128 
128 128 128 128 128 128 128 128 128 
128 128 128 128 128 128 128 128 128 
128 128 128 128 128 128 128 128 128 
128 128 128 128 128 128 128 128 128 
128 128 128 128 128 128 128 128 128 
128 128 128 128 128 128 128 128 128 
128 128 128 128 128 128 128 128 128 
128 128 128 128 128 128 128 128 128 
128 128 128 128 128 128 128 128 128 
128 128 128 128 128 128 128 128 128 
128 128 128 128 128 128 128 128 128 
128 128 128 128 128 128 128 128 128 
128 128 128 128 128 128 128 128 128 
128 128 128 128 128 128 128 128 128 
128 128 128 128 128 128 128 128 128 
128 128 128 128 128 128 128 128 128 
128 128 128 128 128 128 128 128 128 
128 128 128 128 128 128 128 128 128 
128 128 128 128 128 128 128 128 128 
128 128 128 128 128 128 128 128 128 
128 128 128 128 128 128 128 128 128 
128 128 128 128 128 128 128 128 128 
128 128 128 128 128 128 128 128 128 
128 128 128 128 128 128 128 128 128 
128 128 128 128 128 128 128 128 128 
128 128 128 128 128 128 128 128 128 
128 128 128 128 128 128 128 128 128 
128 128 128 128 128 128 128 128 128 
128 128 128 128 128 128 128 128 128 
128 128 128 128 128 128 128 128 128 
128 128 128 128 128 128 128 128 128 
128 128 128 128 128 128 128 128 128 
128 128 128 128 128 128 128 128 128 
128 128 128 128 128 128 128 128 128 
128 128 128 128 128 128 128 128 128 
128 128 128 128 128 128 128 128 128 
128 128 128 128 128 128 128 128 128 
128 128 128 128 128 128 128 128 128 
128 128 128 128 128 128 128 128 128 
128 128 128 128 128 128 128 128 128 
128 128 128 128 128 128 128 128 128 
128 128 128 128 128 128 128 128 128 
128 128 128 128 128 128 128 128 128 
128 128 128 128 128 128 128 128 128 
128 128 128 128 128 128 128 128 128 
128 128 128 128 128 128 128 128 128 
128 128 128 128 128 128 128 128 128 
128 128 128 128 128 128 128 128 128 
128 128 128 128 128 128 128 128 128 
128 128 128 128 128 128 128 128 128 
128 128 128 128 128 128 128 128 128 
128 128 128 128 128 128 128 128 128 
128 128 128 128 128 128 128 128 128 
128 128 128 128 128 128 128 128 128 
128 128 128 128 128 128 128 128 128 
128 128 128 128 128 128 128 128 128 
128 128 128 128 128 128 128 128 128 
128 128 128 128 128 128 128 128 128 
128 128 128 128 128 128 128 128 128 
128 128 128 128 128 128 128 128 128 
128 128 128 128 128 128 128 128 128 
128 128 128 128 128 128 128 128 128 
128 128 128 128 128 128 128 128 128 
128 128 128 128 128 128 128 128 128 
128 128 128 128 128 128 128 128 128 
128 128 128 128 128 128 128 128 128 
128 128 128 128 128 128 128 128 128 
128 128 128 128 128 128 128 128 128 
128 128 128 128 128 128 128 128 128 
128 128 128 128 128 128 128 128 128 
128 128 128 128 128 128 128 128 128 
128 128 128 128 128 128 128 128 128 
128 128 128 128 128 128 128 128 128 
128 128 128 128 128 128 128 128 128 
128 128 128 128 128 128 128 128 128 
128 128 128 128 128 128 128 128 128 
128 128 128 128 128 128 128 128 128 
128 128 128 128 128 128 128 128 128 
128 128 128 128 128 128 128 128 128 
128 128 128 128 128 128 128 128 128 
128 128 128 128 128 128 128 128 128 
128 128 128 128 128 128 128 128 128 
128 128 128 128 128 128 128 128 128 
128 128 128 128 128 128 128 128 128 
128 128 128 128 128 128 128 128 128 
128 128 128 128 128 128 128 128 128 
128 128 128 128 128 128 128 128 128 
128 128 128 128 128 128 128 128 128 
128 128 128 128 128 128 128 128 128 
128 128 128 128 128 128 128 128 128 
128 128 128 128 128 128 128 128 128 
128 128 128 128 128 128 128 128 128 
128 128 128 128 128 128 128 128 128 
128 128 128 128 128 128 128 128 128 
128 128 128 128 128 128 128 128 128 
128 128 128 128 128 128 128 128 128 
128 128 128 128 128 128 128 128 128 
128 128 128 128 128 128 128 128 128 
128 128 128 128 128 128 128 128 128 
128 128 128 128 128 128 128 128 128 
128 128 128 128 128 128 128 128 128 
128 128 128 128 128 128 128 128 128 
128 128 128 128 128 128 128 128 128 
128 128 128 128 128 128 128 128 128 
128 128 128 128 128 128 128 128 128 
128 128 128 128 128 128 128 128 128 
128 128 128 128 128 128 128 128 128 
128 128 128 128 128 128 128 128 128 
128 128 128 128 128 128 128 128 128 
128 128 128 128 128 128 128 128 128 
128 128 128 128 128 128 128 128 128 
128 128 128 128 128 128 128 128 128 
128 128 128 128 128 128 128 128 128 
128 128 128 128 128 128 128 128 128 
128 128 128 128 128 128 128 128 128 
128 128 128 128 128 128 128 128 128 
128 128 128 128 128 128 128 128 128 
128 128 128 128 128 128 128 128 128 
128 128 128 128 128 128 128 128 128 
128 128 128 128 128 128 128 128 128 
128 128 128 128 128 128 128 128 128 
128 128 128 128 128 128 128 128 128 
128 128 128 128 128 128 128 128 128 