# vtk DataFile Version 5.1
vtk output
ASCII
DATASET POLYDATA
POINTS 35118 float
128 128 47.502 128 127.502 48 127.502 128 48 
128.498 128 48 128 128.498 48 127 125 48.502 
127 124.502 49 126.502 125 49 128 125 48.502 
128 124.502 49 129 125 48.502 129 124.502 49 
129.498 125 49 124 126 48.502 124 125.502 49 
123.502 126 49 125 126 48.502 125 125.502 49 
126 126 48.502 126 125.502 49 127 126 48.502 
128 126 48.502 129 126 48.502 130 125.502 49 
130 126 48.502 131 126 48.502 131 125.502 49 
132 126 48.502 132 125.502 49 132.498 126 49 
123 127 48.502 123 126.502 49 122.502 127 49 
124 127 48.502 125 127 48.502 126 127 48.502 
127 127 48.502 128 127 48.502 129 127 48.502 
130 127 48.502 131 127 48.502 132 127 48.502 
133 126.502 49 133 127 48.502 133.498 127 49 
122 128 48.502 122 127.502 49 121.502 128 49 
123 128 48.502 124 128 48.502 125 128 48.502 
126 128 48.502 127 128 48.502 129 128 48.502 
130 128 48.502 131 128 48.502 132 128 48.502 
133 128 48.502 134 127.502 49 134 128 48.502 
134.498 128 49 122 128.498 49 122.502 129 49 
123 129 48.502 124 129 48.502 125 129 48.502 
126 129 48.502 127 129 48.502 128 129 48.502 
129 129 48.502 130 129 48.502 131 129 48.502 
132 129 48.502 133 129 48.502 133.498 129 49 
134 128.498 49 123 129.498 49 123.502 130 49 
124 130 48.502 125 130 48.502 126 130 48.502 
127 130 48.502 128 130 48.502 129 130 48.502 
130 130 48.502 131 130 48.502 132 130 48.502 
132.498 130 49 133 129.498 49 124 130.498 49 
125 130.498 49 126 130.498 49 126.502 131 49 
127 131 48.502 128 131 48.502 129 131 48.502 
129.498 131 49 130 130.498 49 131 130.498 49 
132 130.498 49 127 131.498 49 128 131.498 49 
129 131.498 49 125 124 49.502 125 123.502 50 
124.502 124 50 126 124 49.502 126 123.502 50 
127 124 49.502 127 123.502 50 128 124 49.502 
128 123.502 50 129 124 49.502 129 123.502 50 
130 124 49.502 130 123.502 50 131 124 49.502 
131 123.502 50 131.498 124 50 122 125 49.502 
122 124.502 50 121.502 125 50 123 125 49.502 
123 124.502 50 124 125 49.502 124 124.502 50 
125 125 49.502 126 125 49.502 130 125 49.502 
131 125 49.502 132 124.502 50 132 125 49.502 
133 125 49.502 133 124.502 50 134 125 49.502 
134 124.502 50 134.498 125 50 121 126 49.502 
121 125.502 50 120.502 126 50 122 126 49.502 
123 126 49.502 133 126 49.502 134 126 49.502 
135 125.502 50 135 126 49.502 135.498 126 50 
120 127 49.502 120 126.502 50 119.502 127 50 
121 127 49.502 122 127 49.502 134 127 49.502 
135 127 49.502 136 126.502 50 136 127 49.502 
136.498 127 50 120 128 49.502 119.502 128 50 
121 128 49.502 135 128 49.502 136 128 49.502 
136.498 128 50 120 129 49.502 119.502 129 50 
121 129 49.502 122 129 49.502 134 129 49.502 
135 129 49.502 136 129 49.502 136.498 129 50 
120 129.498 50 120.502 130 50 121 130 49.502 
122 130 49.502 123 130 49.502 133 130 49.502 
134 130 49.502 135 130 49.502 135.498 130 50 
136 129.498 50 121 130.498 50 121.502 131 50 
122 131 49.502 123 131 49.502 124 131 49.502 
125 131 49.502 126 131 49.502 130 131 49.502 
131 131 49.502 132 131 49.502 133 131 49.502 
134 131 49.502 134.498 131 50 135 130.498 50 
122 131.498 50 123 131.498 50 124 131.498 50 
124.502 132 50 125 132 49.502 126 132 49.502 
127 132 49.502 128 132 49.502 129 132 49.502 
130 132 49.502 131 132 49.502 131.498 132 50 
132 131.498 50 133 131.498 50 134 131.498 50 
125 132.498 50 126 132.498 50 127 132.498 50 
128 132.498 50 129 132.498 50 130 132.498 50 
131 132.498 50 124 123 50.502 124 122.502 51 
123.502 123 51 125 123 50.502 125 122.502 51 
126 123 50.502 126 122.502 51 127 123 50.502 
127 122.502 51 128 123 50.502 128 122.502 51 
129 123 50.502 129 122.502 51 130 123 50.502 
130 122.502 51 131 123 50.502 131 122.502 51 
132 123 50.502 132 122.502 51 132.498 123 51 
121 124 50.502 121 123.502 51 120.502 124 51 
122 124 50.502 122 123.502 51 123 124 50.502 
123 123.502 51 124 124 50.502 132 124 50.502 
133 123.502 51 133 124 50.502 134 124 50.502 
134 123.502 51 135 124 50.502 135 123.502 51 
135.498 124 51 119 125 50.502 119 124.502 51 
118.502 125 51 120 125 50.502 120 124.502 51 
121 125 50.502 135 125 50.502 136 124.502 51 
136 125 50.502 137 125 50.502 137 124.502 51 
137.498 125 51 118 126 50.502 118 125.502 51 
117.502 126 51 119 126 50.502 120 126 50.502 
136 126 50.502 137 126 50.502 138 125.502 51 
138 126 50.502 138.498 126 51 118 127 50.502 
117.502 127 51 119 127 50.502 137 127 50.502 
138 127 50.502 138.498 127 51 118 128 50.502 
117.502 128 51 119 128 50.502 137 128 50.502 
138 128 50.502 138.498 128 51 118 129 50.502 
117.502 129 51 119 129 50.502 137 129 50.502 
138 129 50.502 138.498 129 51 118 130 50.502 
117.502 130 51 119 130 50.502 120 130 50.502 
136 130 50.502 137 130 50.502 138 130 50.502 
138.498 130 51 118 130.498 51 118.502 131 51 
119 131 50.502 120 131 50.502 121 131 50.502 
135 131 50.502 136 131 50.502 137 131 50.502 
137.498 131 51 138 130.498 51 119 131.498 51 
120 131.498 51 120.502 132 51 121 132 50.502 
122 132 50.502 123 132 50.502 124 132 50.502 
132 132 50.502 133 132 50.502 134 132 50.502 
135 132 50.502 135.498 132 51 136 131.498 51 
137 131.498 51 121 132.498 51 122 132.498 51 
123 132.498 51 123.502 133 51 124 133 50.502 
125 133 50.502 126 133 50.502 127 133 50.502 
128 133 50.502 129 133 50.502 130 133 50.502 
131 133 50.502 132 133 50.502 132.498 133 51 
133 132.498 51 134 132.498 51 135 132.498 51 
124 133.498 51 125 133.498 51 126 133.498 51 
127 133.498 51 128 133.498 51 129 133.498 51 
130 133.498 51 131 133.498 51 132 133.498 51 
125 122 51.502 125 121.502 52 124.502 122 52 
126 122 51.502 126 121.502 52 127 122 51.502 
127 121.502 52 128 122 51.502 128 121.502 52 
129 122 51.502 129 121.502 52 130 122 51.502 
130 121.502 52 131 122 51.502 131 121.502 52 
131.498 122 52 121 123 51.502 121 122.502 52 
120.502 123 52 122 123 51.502 122 122.502 52 
123 123 51.502 123 122.502 52 124 122.502 52 
132 122.502 52 133 123 51.502 133 122.502 52 
134 123 51.502 134 122.502 52 135 123 51.502 
135 122.502 52 135.498 123 52 119 124 51.502 
119 123.502 52 118.502 124 52 120 124 51.502 
120 123.502 52 136 124 51.502 136 123.502 52 
137 124 51.502 137 123.502 52 137.498 124 52 
118 125 51.502 118 124.502 52 117.502 125 52 
138 125 51.502 138 124.502 52 138.498 125 52 
117 126 51.502 117 125.502 52 116.502 126 52 
139 126 51.502 139 125.502 52 139.498 126 52 
116 127 51.502 116 126.502 52 115.502 127 52 
117 127 51.502 139 127 51.502 140 126.502 52 
140 127 51.502 140.498 127 52 116 128 51.502 
115.502 128 52 117 128 51.502 139 128 51.502 
140 128 51.502 140.498 128 52 116 129 51.502 
115.502 129 52 117 129 51.502 139 129 51.502 
140 129 51.502 140.498 129 52 116 129.498 52 
116.502 130 52 117 130 51.502 139 130 51.502 
139.498 130 52 140 129.498 52 117 130.498 52 
118 131 51.502 117.502 131 52 138 131 51.502 
138.498 131 52 139 130.498 52 118 131.498 52 
119 132 51.502 118.502 132 52 120 132 51.502 
136 132 51.502 137 132 51.502 137.498 132 52 
138 131.498 52 119 132.498 52 120 132.498 52 
121 133 51.502 120.502 133 52 122 133 51.502 
123 133 51.502 133 133 51.502 134 133 51.502 
135 133 51.502 135.498 133 52 136 132.498 52 
137 132.498 52 121 133.498 52 122 133.498 52 
123 133.498 52 124 133.498 52 125 134 51.502 
124.502 134 52 126 134 51.502 127 134 51.502 
128 134 51.502 129 134 51.502 130 134 51.502 
131 134 51.502 131.498 134 52 132 133.498 52 
133 133.498 52 134 133.498 52 135 133.498 52 
125 134.498 52 126 134.498 52 127 134.498 52 
128 134.498 52 129 134.498 52 130 134.498 52 
131 134.498 52 121 122 52.502 121 121.502 53 
120.502 122 53 122 122 52.502 122 121.502 53 
123 122 52.502 123 121.502 53 124 122 52.502 
124 121.502 53 125 121.502 53 126 121.502 53 
127 121.502 53 128 121.502 53 129 121.502 53 
130 121.502 53 131 121.502 53 132 122 52.502 
132 121.502 53 133 122 52.502 133 121.502 53 
134 122 52.502 134 121.502 53 135 122 52.502 
135 121.502 53 135.498 122 53 119 123 52.502 
119 122.502 53 118.502 123 53 120 123 52.502 
120 122.502 53 136 123 52.502 136 122.502 53 
137 123 52.502 137 122.502 53 137.498 123 53 
117 124 52.502 117 123.502 53 116.502 124 53 
118 124 52.502 118 123.502 53 138 124 52.502 
138 123.502 53 139 124 52.502 139 123.502 53 
139.498 124 53 116 125 52.502 116 124.502 53 
115.502 125 53 117 125 52.502 139 125 52.502 
140 124.502 53 140 125 52.502 140.498 125 53 
115 126 52.502 115 125.502 53 114.502 126 53 
116 126 52.502 140 126 52.502 141 125.502 53 
141 126 52.502 141.498 126 53 115 127 52.502 
114.502 127 53 141 127 52.502 141.498 127 53 
115 128 52.502 114.502 128 53 141 128 52.502 
141.498 128 53 115 129 52.502 114.502 129 53 
141 129 52.502 141.498 129 53 115 130 52.502 
114.502 130 53 116 130 52.502 140 130 52.502 
141 130 52.502 141.498 130 53 115 130.498 53 
115.502 131 53 116 131 52.502 117 131 52.502 
139 131 52.502 140 131 52.502 140.498 131 53 
141 130.498 53 116 131.498 53 116.502 132 53 
117 132 52.502 118 132 52.502 138 132 52.502 
139 132 52.502 139.498 132 53 140 131.498 53 
117 132.498 53 118 132.498 53 119 133 52.502 
118.502 133 53 120 133 52.502 136 133 52.502 
137 133 52.502 137.498 133 53 138 132.498 53 
139 132.498 53 119 133.498 53 120 133.498 53 
121 134 52.502 120.502 134 53 122 134 52.502 
123 134 52.502 124 134 52.502 132 134 52.502 
133 134 52.502 134 134 52.502 135 134 52.502 
135.498 134 53 136 133.498 53 137 133.498 53 
121 134.498 53 122 134.498 53 123 134.498 53 
124 134.498 53 125 134.498 53 126 134.498 53 
127 134.498 53 128 134.498 53 129 134.498 53 
130 134.498 53 131 134.498 53 132 134.498 53 
133 134.498 53 134 134.498 53 135 134.498 53 
123 121 53.502 123 120.502 54 122.502 121 54 
124 121 53.502 124 120.502 54 125 121 53.502 
125 120.502 54 126 121 53.502 126 120.502 54 
127 121 53.502 127 120.502 54 128 121 53.502 
128 120.502 54 129 121 53.502 129 120.502 54 
130 121 53.502 130 120.502 54 131 121 53.502 
131 120.502 54 132 121 53.502 132 120.502 54 
133 121 53.502 133 120.502 54 133.498 121 54 
119 122 53.502 119 121.502 54 118.502 122 54 
120 122 53.502 120 121.502 54 121 121.502 54 
[...]
POINT_DATA 35118
SCALARS scalars float
LOOKUP_TABLE default
128 128 128 128 128 128 128 128 128 
128 128 128 128 128 128 128 128 128 
128 128 128 128 128 128 128 128 128 
128 128 128 128 128 128 128 128 128 
128 128 128 128 128 128 128 128 128 
128 128 128 128 128 128 128 128 128 
128 128 128 128 128 128 128 128 128 
128 128 128 128 128 128 128 128 128 
128 128 128 128 128 128 128 128 128 
128 128 128 128 128 128 128 128 128 
128 128 128 128 128 128 128 128 128 
128 128 128 128 128 128 128 128 128 
128 128 128 128 128 128 128 128 128 
128 128 128 128 128 128 128 128 128 
128 128 128 128 128 128 128 128 128 
128 128 128 128 128 128 128 128 128 
128 128 128 128 128 128 128 128 128 
128 128 128 128 128 128 128 128 128 
128 128 128 128 128 128 128 128 128 
128 128 128 128 128 128 128 128 128 
128 128 128 128 128 128 128 128 128 
128 128 128 128 128 128 128 128 128 
128 128 128 128 128 128 128 128 128 
128 128 128 128 128 128 128 128 128 
128 128 128 128 128 128 128 128 128 
128 128 128 128 128 128 128 128 128 
128 128 128 128 128 128 128 128 128 
128 128 128 128 128 128 128 128 128 
128 128 128 128 128 128 128 128 128 
128 128 128 128 128 128 128 128 128 
128 128 128 128 128 128 128 128 128 
128 128 128 128 128 128 128 128 128 
128 128 128 128 128 128 128 128 128 
128 128 128 128 128 128 128 128 128 
128 128 128 128 128 128 128 128 128 
128 128 128 128 128 128 128 128 128 
128 128 128 128 128 128 128 128 128 
128 128 128 128 128 128 128 128 128 
128 128 128 128 128 128 128 128 128 
128 128 128 128 128 128 128 128 128 
128 128 128 128 128 128 128 128 128 
128 128 128 128 128 128 128 128 128 
128 128 128 128 128 128 128 128 128 
128 128 128 128 128 128 128 128 128 
128 128 128 128 128 128 128 128 128 
128 128 128 128 128 128 128 128 128 
128 128 128 128 128 128 128 128 128 
128 128 128 128 128 128 128 128 128 
128 128 128 128 128 128 128 128 128 
128 128 128 128 128 128 128 128 128 
128 128 128 128 128 128 128 128 128 
128 128 128 128 128 128 128 128 128 
128 128 128 128 128 128 128 128 128 
128 128 128 128 128 128 128 128 128 
128 128 128 128 128 128 128 128 128 
128 128 128 128 128 128 128 128 128 
128 128 128 128 128 128 128 128 128 
128 128 128 128 128 128 128 128 128 
128 128 128 128 128 128 128 128 128 
128 128 128 128 128 128 128 128 128 
128 128 128 128 128 128 128 128 128 
128 128 128 128 128 128 128 128 128 
128 128 128 128 128 128 128 128 128 
128 128 128 128 128 128 128 128 128 
128 128 128 128 128 128 128 128 128 
128 128 128 128 128 128 128 128 128 
128 128 128 128 128 128 128 128 128 
128 128 128 128 128 128 128 128 128 
128 128 128 128 128 128 128 128 128 
128 128 128 128 128 128 128 128 128 
128 128 128 128 128 128 128 128 128 
128 128 128 128 128 128 128 128 128 
128 128 128 128 128 128 128 128 128 
128 128 128 128 128 128 128 128 128 
128 128 128 128 128 128 128 128 128 
128 128 128 128 128 128 128 128 128 
128 128 128 128 128 128 128 128 128 
128 128 128 128 128 128 128 128 128 
128 128 128 128 128 128 128 128 128 
128 128 128 128 128 128 128 128 128 
128 128 128 128 128 128 128 128 128 
128 128 128 128 128 128 128 128 128 
128 128 128 128 128 128 128 128 128 
128 128 128 128 128 128 128 128 128 
128 128 128 128 128 128 128 128 128 
128 128 128 128 128 128 128 128 128 
128 128 128 128 128 128 128 128 128 
128 128 128 128 128 128 128 128 128 
128 128 128 128 128 128 128 128 128 
128 128 128 128 128 128 128 128 128 
128 128 128 128 128 128 128 128 128 
128 128 128 128 128 128 128 128 128 
128 128 128 128 128 128 128 128 128 
128 128 128 128 128 128 128 128 128 
128 128 128 128 128 128 128 128 128 
128 128 128 128 128 128 128 128 128 
128 128 128 128 128 128 128 128 128 
128 128 128 128 128 128 128 128 128 
128 128 128 128 128 128 128 128 128 
128 128 128 128 128 128 128 128 128 
128 128 128 128 128 128 128 128 128 
128 128 128 128 128 128 128 128 128 
128 128 128 128 128 128 128 128 128 
128 128 128 128 128 128 128 128 128 
128 128 128 128 128 128 128 128 128 
128 128 128 128 128 128 128 128 128 
128 128 128 128 128 128 128 128 128 
128 128 128 128 128 128 128 128 128 
128 128 128 128 128 128 128 128 128 
128 128 128 128 128 128 128 128 128 
128 128 128 128 128 128 128 128 128 
128 128 128 128 128 128 128 128 128 
128 128 128 128 128 128 128 128 128 
128 128 128 128 128 128 128 128 128 
128 128 128 128 128 128 128 128 128 
128 128 128 128 128 128 128 128 128 
128 128 128 128 128 128 128 128 128 
128 128 128 128 128 128 128 128 128 
128 128 128 128 128 128 128 128 128 
128 128 128 128 128 128 128 128 128 
128 128 128 128 128 128 128 128 128 
128 128 128 128 128 128 128 128 128 
128 128 128 128 128 128 128 128 128 
128 128 128 128 128 128 128 128 128 
128 128 128 128 128 128 128 128 128 
128 128 128 128 128 128 128 128 128 
128 128 128 128 128 128 128 128 128 
128 128 128 128 128 128 128 128 128 
128 128 128 128 128 128 128 128 128 
128 128 128 128 128 128 128 128 128 
128 128 128 128 128 128 128 128 128 
128 128 128 128 128 128 128 128 128 
128 128 128 128 128 128 128 128 128 
128 128 128 128 128 128 128 128 128 
128 128 128 128 128 128 128 128 128 
128 128 128 128 128 128 128 128 128 
128 128 128 128 128 128 128 128 128 
128 128 128 128 128 128 128 128 128 
128 128 128 128 128 128 128 128 128 
128 128 128 128 128 128 128 128 128 
128 128 128 128 128 128 128 128 128 
128 128 128 128 128 128 128 128 128 
128 128 128 128 128 128 128 128 128 
128 128 128 128 128 128 128 128 128 
128 128 128 128 128 128 128 128 128 
128 128 128 128 128 128 128 128 128 
128 128 128 128 128 128 128 128 128 
128 128 128 128 128 128 128 128 128 
128 128 128 128 128 128 128 128 128 
128 128 128 128 128 128 128 128 128 
128 128 128 128 128 128 128 128 128 
128 128 128 128 128 128 128 128 128 
128 128 128 128 128 128 128 128 128 
128 128 128 128 128 128 128 128 128 
128 128 128 128 128 128 128 128 128 
128 128 128 128 128 128 128 128 128 
128 128 128 128 128 128 128 128 128 
128 128 128 128 128 128 128 128 128 
128 128 128 128 128 128 128 128 128 
128 128 128 128 128 128 128 128 128 
128 128 128 128 128 128 128 128 128 
128 128 128 128 128 128 128 128 128 
128 128 128 128 128 128 128 128 128 
128 128 128 128 128 128 128 128 128 
128 128 128 128 128 128 128 128 128 
128 128 128 128 128 128 128 128 128 
128 128 128 128 128 128 128 128 128 
128 128 128 128 128 128 128 128 128 
128 128 128 128 128 128 128 128 128 
128 128 128 128 128 128 128 128 128 
128 128 128 128 128 128 128 128 128 
128 128 128 128 128 128 128 128 128 
128 128 128 128 128 128 128 128 128 
128 128 128 128 128 128 128 128 128 
128 128 128 128 128 128 128 128 128 
128 128 128 128 128 128 128 128 128 
128 128 128 128 128 128 128 128 128 
128 128 128 128 128 128 128 128 128 
128 128 128 128 128 128 128 128 128 
128 128 128 128 128 128 128 128 128 
128 128 128 128 128 128 128 128 128 
128 128 128 128 128 128 128 128 128 
128 128 128 128 128 128 128 128 128 
128 128 128 128 128 128 128 128 128 
128 128 128 128 128 128 128 128 128 
128 128 128 128 128 128 128 128 128 
128 128 128 128 128 128 128 128 128 
128 128 128 128 128 128 128 128 128 
128 128 128 128 128 128 128 128 128 
128 128 128 128 128 128 128 128 128 
128 128 128 128 128 128 128 128 128 
128 128 128 128 128 128 128 128 128 
128 128 128 128 128 128 128 128 128 
128 128 128 128 128 128 128 128 128 
128 128 128 128 128 128 128 128 128 
128 128 128 128 128 128 128 128 128 
128 128 128 128 128 128 128 128 128 
128 128 128 128 128 128 128 128 128 
128 128 128 128 128 128 128 128 128 
128 128 128 128 128 128 128 128 128 
128 128 128 128 128 128 128 128 128 
128 128 128 128 128 128 128 128 128 
128 128 128 128 128 128 128 128 128 
128 128 128 128 128 128 128 128 128 
128 128 128 128 128 128 128 128 128 
128 128 128 128 128 128 128 128 128 
128 128 128 128 128 128 128 128 128 
128 128 128 128 128 128 128 128 128 
128 128 128 128 128 128 128 128 128 
128 128 128 128 128 128 128 128 128 
128 128 128 128 128 128 128 128 128 
128 128 128 128 128 128 128 128 128 
128 128 128 128 128 128 128 128 128 
128 128 128 128 128 128 128 128 128 
128 128 128 128 128 128 128 128 128 
128 128 128 128 128 128 128 128 128 
128 128 128 128 128 128 128 128 128 
128 128 128 128 128 128 128 128 128 
128 128 128 128 128 128 128 128 128 
128 128 128 128 128 128 128 128 128 
128 128 128 128 128 128 128 128 128 
128 128 128 128 128 128 128 128 128 
128 128 128 128 128 128 128 128 128 
128 128 128 128 128 128 128 128 128 
128 128 128 128 128 128 128 128 128 
128 128 128 128 128 128 128 128 128 
128 128 128 128 128 128 128 128 128 
128 128 128 128 128 128 128 128 128 
128 128 128 128 128 128 128 128 128 
128 128 128 128 128 128 128 128 128 
128 128 128 128 128 128 128 128 128 
128 128 128 128 128 128 128 128 128 
128 128 128 128 128 128 128 128 128 
128 128 128 128 128 128 128 128 128 
128 128 128 128 128 128 128 128 128 
128 128 128 128 128 128 128 128 128 
128 128 128 128 128 128 128 128 128 
128 128 128 128 128 128 128 128 128 
128 128 128 128 128 128 128 128 128 
128 128 128 128 128 128 128 128 128 
128 128 128 128 128 128 128 128 128 
128 128 128 128 128 128 128 128 128 
128 128 128 128 128 128 128 128 128 
128 128 128 128 128 128 128 128 128 
128 128 128 128 128 128 128 128 128 
128 128 128 128 128 128 128 128 128 
128 128 128 128 128 128 128 128 128 
128 128 128 128 128 128 128 128 128 
128 128 128 128 128 128 128 128 128 
128 128 128 128 128 128 128 128 128 
128 128 128 128 128 128 128 128 128 
128 128 128 128 128 128 128 128 128 
128 128 128 128 128 128 128 128 128 
128 128 128 128 128 128 128 128 128 
128 128 128 128 128 128 128 128 128 
128 128 128 128 128 128 128 128 128 
128 128 128 128 128 128 128 128 128 
128 128 128 128 128 128 128 128 128 
128 128 128 128 128 128 128 128 128 
128 128 128 128 128 128 128 128 128 
128 128 128 128 128 128 128 128 128 
128 128 128 128 128 128 128 128 128 
128 128 128 128 128 128 128 128 128 
128 128 128 128 128 128 128 128 128 
128 128 128 128 128 128 128 128 128 
128 128 128 128 128 128 128 128 128 
128 128 128 128 128 128 128 128 128 
128 128 128 128 128 128 128 128 128 
128 128 128 128 128 128 128 128 128 
128 128 128 128 128 128 128 128 128 
128 128 128 128 128 128 128 128 128 
128 128 128 128 128 128 128 128 128 
128 128 128 128 128 128 128 128 128 
128 128 128 128 128 128 128 128 128 
128 128 128 128 128 128 128 128 128 
128 128 128 128 128 128 128 128 128 
128 128 128 128 128 128 128 128 128 
128 128 128 128 128 128 128 128 128 
128 128 128 128 128 128 128 128 128 
128 128 128 128 128 128 128 128 128 
128 128 128 128 128 128 128 128 128 
128 128 128 128 128 128 128 128 128 
128 128 128 128 128 128 128 128 128 
128 128 128 128 128 128 128 128 128 
128 128 128 128 128 128 128 128 128 
128 128 128 128 128 128 128 128 128 
128 128 128 128 128 128 128 128 128 
128 128 128 128 128 128 128 128 128 
128 128 128 128 128 128 128 128 128 
128 128 128 128 128 128 128 128 128 
128 128 128 128 128 128 128 128 128 
128 128 128 128 128 128 128 128 128 
128 128 128 128 128 128 128 128 128 
128 128 128 128 128 128 128 128 128 
128 128 128 128 128 128 128 128 128 
128 128 128 128 128 128 128 128 128 
128 128 128 128 128 128 128 128 128 
128 128 128 128 128 128 128 128 128 
128 128 128 128 128 128 128 128 128 
128 128 128 128 128 128 128 128 128 
128 128 128 128 128 128 128 128 128 
128 128 128 128 128 128 128 128 128 
128 128 128 128 128 128 128 128 128 
128 128 128 128 128 128 128 128 128 
128 128 128 128 128 128 128 128 128 
128 128 128 128 128 128 128 128 128 
128 128 128 128 128 128 128 128 128 
128 128 128 128 128 128 128 128 128 
128 128 128 128 128 128 128 128 128 
128 128 128 128 128 128 128 128 128 
128 128 128 128 128 128 128 128 128 
128 128 128 128 128 128 128 128 128 
128 128 128 128 128 128 128 128 128 
128 128 128 128 128 128 128 128 128 
128 128 128 128 128 128 128 128 128 
128 128 128 128 128 128 128 128 128 
128 128 128 128 128 128 128 128 128 
128 128 128 128 128 128 128 128 128 
128 128 128 128 128 128 128 128 128 
128 128 128 128 128 128 128 128 128 
128 128 128 128 128 128 128 128 128 
128 128 128 128 128 128 128 128 128 
128 128 128 128 128 128 128 128 128 
128 128 128 128 128 128 128 128 128 
128 128 128 128 128 128 128 128 128 
128 128 128 128 128 128 128 128 128 
128 128 128 128 128 128 128 128 128 
128 128 128 128 128 128 128 128 128 
128 128 128 128 128 128 128 128 128 
128 128 128 128 128 128 128 128 128 
128 128 128 128 128 128 128 128 128 
128 128 128 128 128 128 128 128 128 
128 128 128 128 128 128 128 128 128 
128 128 128 128 128 128 128 128 128 
128 128 128 128 128 128 128 128 128 
128 128 128 128 128 128 128 128 128 
128 128 128 128 128 128 128 128 128 
128 128 128 128 128 128 128 128 128 
128 128 128 128 128 128 128 128 128 
128 128 128 128 128 128 128 128 128 
128 128 128 128 128 128 128 128 128 
128 128 128 128 128 128 128 128 128 
128 128 128 128 128 128 128 128 128 
128 128 128 128 128 128 128 128 128 
128 128 128 128 128 128 128 128 128 
128 128 128 128 128 128 128 128 128 
128 128 128 128 128 128 128 128 128 
128 128 128 128 128 128 128 128 128 
128 128 128 128 128 128 128 128 128 
128 128 128 128 128 128 128 128 128 
128 128 128 128 128 128 128 128 128 
128 128 128 128 128 128 128 128 128 
128 128 128 128 128 128 128 128 128 
128 128 128 128 128 128 128 128 128 
128 128 128 128 128 128 128 128 128 
128 128 128 128 128 128 128 128 128 
128 128 128 128 128 128 128 128 128 
128 128 128 128 128 128 128 128 128 
128 128 128 128 128 128 128 128 128 
128 128 128 128 128 128 128 128 128 
128 128 128 128 128 128 128 128 128 
128 128 128 128 128 128 128 128 128 
128 128 128 128 128 128 128 128 128 
128 128 128 128 128 128 128 128 128 
128 128 128 128 128 128 128 128 128 
128 128 128 128 128 128 128 128 128 
128 128 128 128 128 128 128 128 128 
128 128 128 128 128 128 128 128 128 
128 128 128 128 128 128 128 128 128 
128 128 128 128 128 128 128 128 128 
128 128 128 128 128 128 128 128 128 
128 128 128 128 128 128 128 128 128 
128 128 128 128 128 128 128 128 128 
128 128 128 128 128 128 128 128 128 
128 128 128 128 128 128 128 128 128 
128 128 128 128 128 128 128 128 128 
128 128 128 128 128 128 128 128 128 
128 128 128 128 128 128 128 128 128 
128 128 128 128 128 128 128 128 128 
128 128 128 128 128 128 128 128 128 
128 128 128 128 128 128 128 128 128 
128 128 128 128 128 128 128 128 128 
128 128 128 128 128 128 128 128 128 
128 128 128 128 128 128 128 128 128 
128 128 128 128 128 128 128 128 128 
128 128 128 128 128 128 128 128 128 
128 128 128 128 128 128 128 128 128 
128 128 128 128 128 128 128 128 128 
128 128 128 128 128 128 128 128 128 
128 128 128 128 128 128 128 128 128 
128 128 128 128 128 128 128 128 128 
128 128 128 128 128 128 128 128 128 
128 128 128 128 128 128 128 128 128 
128 128 128 128 128 128 128 128 128 
128 128 128 128 128 128 128 128 128 
128 128 128 128 128 128 128 128 128 
128 128 128 128 128 128 128 128 128 
128 128 128 128 128 128 128 128 128 
128 128 128 128 128 128 128 128 128 
128 128 128 128 128 128 128 128 128 
128 128 128 128 128 128 128 128 128 
128 128 128 128 128 128 128 128 128 
128 128 128 128 128 128 128 128 128 
128 128 128 128 128 128 128 128 128 
128 128 128 128 128 128 128 128 128 
128 128 128 128 128 128 128 128 128 
128 128 128 128 128 128 128 128 128 
128 128 128 128 128 128 128 128 128 
128 128 128 128 128 128 128 128 128 
128 128 128 128 128 128 128 128 128 
128 128 128 128 128 128 128 128 128 
128 128 128 128 128 128 128 128 128 
128 128 128 128 128 128 128 128 128 
128 128 128 128 128 128 128 128 128 
128 128 128 128 128 128 128 128 128 
128 128 128 128 128 128 128 128 128 
128 128 128 128 128 128 128 128 128 
128 128 128 128 128 128 128 128 128 
128 128 128 128 128 128 128 128 128 
128 128 128 128 128 128 128 128 128 
128 128 128 128 128 128 128 128 128 
128 128 128 128 128 128 128 128 128 
128 128 128 128 128 128 128 128 128 
128 128 128 128 128 128 128 128 128 
128 128 128 128 128 128 128 128 128 
128 128 128 128 128 128 128 128 128 
128 128 128 128 128 128 128 128 128 
128 128 128 128 128 128 128 128 128 
128 128 128 128 128 128 128 128 128 
128 128 128 128 128 128 128 128 128 
128 128 128 128 128 128 128 128 128 
128 128 128 128 128 128 128 128 128 
128 128 128 128 128 128 128 128 128 
128 128 128 128 128 128 128 128 128 
128 128 128 128 128 128 128 128 128 
128 128 128 128 128 128 128 128 128 
128 128 128 128 128 128 128 128 128 
128 128 128 128 128 128 128 128 128 
128 128 128 128 128 128 128 128 128 
128 128 128 128 128 128 128 128 128 
128 128 128 128 128 128 128 128 128 
128 128 128 128 128 128 128 128 128 
128 128 128 128 128 128 128 128 128 
128 128 128 128 128 128 128 128 128 
128 128 128 128 128 128 128 128 128 
128 128 128 128 128 128 128 128 128 
128 128 128 128 128 128 128 128 128 
128 128 128 128 128 128 128 128 128 
128 128 128 128 128 128 128 128 128 
128 128 128 128 128 128 128 128 128 
128 128 128 128 128 128 128 128 128 
128 128 128 128 128 128 128 128 128 
128 128 128 128 128 128 128 128 128 
128 128 128 128 128 128 128 128 128 
128 128 128 128 128 128 128 128 128 
128 128 128 128 128 128 128 128 128 
128 128 128 128 128 128 128 128 128 
128 128 128 128 128 128 128 128 128 
128 128 128 128 128 128 128 128 128 
128 128 128 128 128 128 128 128 128 
128 128 128 128 128 128 128 128 128 
128 128 128 128 128 128 128 128 128 
128 128 128 128 128 128 128 128 128 
128 128 128 128 128 128 128 128 128 
128 128 128 128 128 128 128 128 128 
128 128 128 128 128 128 128 128 128 
128 128 128 128 128 128 128 128 128 
128 128 128 128 128 128 128 128 128 
128 128 128 128 128 128 128 128 128 
128 128 128 128 128 128 128 128 128 
128 128 128 128 128 128 128 128 128 
128 128 128 128 128 128 128 128 128 
128 128 128 128 128 128 128 128 128 
128 128 128 128 128 128 128 128 128 
128 128 128 128 128 128 128 128 128 
128 128 128 128 128 128 128 128 128 
128 128 128 128 128 128 128 128 128 
128 128 128 128 128 128 128 128 128 
128 128 128 128 128 128 128 128 128 
128 128 128 128 128 128 128 128 128 
128 128 128 128 128 128 128 128 128 
128 128 128 128 128 128 128 128 128 
128 128 128 128 128 128 128 128 128 
128 128 128 128 128 128 128 128 128 
128 128 128 128 128 128 128 128 128 
128 128 128 128 128 128 128 128 128 
128 128 128 128 128 128 128 128 128 
128 128 128 128 128 128 128 128 128 
128 128 128 128 128 128 128 128 128 
128 128 128 128 128 128 128 128 128 
128 128 128 128 128 128 128 128 128 
128 128 128 128 128 128 128 128 128 
128 128 128 128 128 128 128 128 128 
128 128 128 128 128 128 128 128 128 
128 128 128 128 128 128 128 128 128 
128 128 128 128 128 128 128 128 128 
128 128 128 128 128 128 128 128 128 
128 128 128 128 128 128 128 128 128 
128 128 128 128 128 128 128 128 128 
128 128 128 128 128 128 128 128 128 
128 128 128 128 128 128 128 128 128 
128 128 128 128 128 128 128 128 128 
128 128 128 128 128 128 128 128 128 
128 128 128 128 128 128 128 128 128 
128 128 128 128 128 128 128 128 128 
128 128 128 128 128 128 128 128 128 
128 128 128 128 128 128 128 128 128 
128 128 128 128 128 128 128 128 128 
128 128 128 128 128 128 128 128 128 
128 128 128 128 128 128 128 128 128 
128 128 128 128 128 128 128 128 128 
128 128 128 128 128 128 128 128 128 
128 128 128 128 128 128 128 128 128 
128 128 128 128 128 128 128 128 128 
128 128 128 128 128 128 128 128 128 
128 128 128 128 128 128 128 128 128 
128 128 128 128 128 128 128 128 128 
128 128 128 128 128 128 128 128 128 
128 128 128 128 128 128 128 128 128 
128 128 128 128 128 128 128 128 128 
128 128 128 128 128 128 128 128 128 
128 128 128 128 128 128 128 128 128 
128 128 128 128 128 128 128 128 128 
128 128 128 128 128 128 128 128 128 
128 128 128 128 128 128 128 128 128 
128 128 128 128 128 128 128 128 128 
128 128 128 128 128 128 128 128 128 
128 128 128 128 128 128 128 128 128 
128 128 128 128 128 128 128 128 128 
128 128 128 128 128 128 128 128 128 
128 128 128 128 128 128 128 128 128 
128 128 128 128 128 128 128 128 128 
128 128 128 128 128 128 128 128 128 
128 128 128 128 128 128 128 128 128 
128 128 128 128 128 128 128 128 128 
128 128 128 128 128 128 128 128 128 
128 128 128 128 128 128 128 128 128 
128 128 128 128 128 128 128 128 128 