# vtk DataFile Version 5.1
vtk output
ASCII
DATASET POLYDATA
POINTS 21130 float
78 103 87.502 78 102.502 88 77.502 103 88 
79 103 87.502 79 102.502 88 80 103 87.502 
80 102.502 88 80.498 103 88 78 104 87.502 
77.502 104 88 79 104 87.502 80 104 87.502 
80.498 104 88 78 105 87.502 77.502 105 88 
79 105 87.502 80 105 87.502 80.498 105 88 
78 106 87.502 77.502 106 88 79 106 87.502 
80 106 87.502 80.498 106 88 78 107 87.502 
77.502 107 88 79 107 87.502 80 107 87.502 
80.498 107 88 78 108 87.502 77.502 108 88 
79 108 87.502 80 108 87.502 80.498 108 88 
78 109 87.502 77.502 109 88 79 109 87.502 
80 109 87.502 80.498 109 88 78 110 87.502 
77.502 110 88 79 110 87.502 80 110 87.502 
80.498 110 88 78 111 87.502 77.502 111 88 
79 111 87.502 80 111 87.502 80.498 111 88 
78 112 87.502 77.502 112 88 79 112 87.502 
80 112 87.502 80.498 112 88 78 113 87.502 
77.502 113 88 79 113 87.502 80 113 87.502 
80.498 113 88 78 114 87.502 77.502 114 88 
79 114 87.502 80 114 87.502 80.498 114 88 
78 115 87.502 77.502 115 88 79 115 87.502 
80 115 87.502 80.498 115 88 78 116 87.502 
77.502 116 88 79 116 87.502 80 116 87.502 
80.498 116 88 78 117 87.502 77.502 117 88 
79 117 87.502 80 117 87.502 80.498 117 88 
78 118 87.502 77.502 118 88 79 118 87.502 
80 118 87.502 80.498 118 88 78 119 87.502 
77.502 119 88 79 119 87.502 80 119 87.502 
80.498 119 88 78 120 87.502 77.502 120 88 
79 120 87.502 80 120 87.502 80.498 120 88 
78 121 87.502 77.502 121 88 79 121 87.502 
80 121 87.502 80.498 121 88 78 122 87.502 
77.502 122 88 79 122 87.502 80 122 87.502 
80.498 122 88 78 123 87.502 77.502 123 88 
79 123 87.502 80 123 87.502 80.498 123 88 
78 124 87.502 77.502 124 88 79 124 87.502 
80 124 87.502 80.498 124 88 78 125 87.502 
77.502 125 88 79 125 87.502 80 125 87.502 
80.498 125 88 78 126 87.502 77.502 126 88 
79 126 87.502 80 126 87.502 80.498 126 88 
78 127 87.502 77.502 127 88 79 127 87.502 
80 127 87.502 80.498 127 88 78 128 87.502 
77.502 128 88 79 128 87.502 80 128 87.502 
80.498 128 88 78 129 87.502 77.502 129 88 
79 129 87.502 80 129 87.502 80.498 129 88 
78 130 87.502 77.502 130 88 79 130 87.502 
80 130 87.502 80.498 130 88 78 131 87.502 
77.502 131 88 79 131 87.502 80 131 87.502 
80.498 131 88 78 132 87.502 77.502 132 88 
79 132 87.502 80 132 87.502 80.498 132 88 
78 133 87.502 77.502 133 88 79 133 87.502 
80 133 87.502 80.498 133 88 78 134 87.502 
77.502 134 88 79 134 87.502 80 134 87.502 
80.498 134 88 78 135 87.502 77.502 135 88 
79 135 87.502 80 135 87.502 80.498 135 88 
78 136 87.502 77.502 136 88 79 136 87.502 
80 136 87.502 80.498 136 88 78 137 87.502 
77.502 137 88 79 137 87.502 80 137 87.502 
80.498 137 88 78 138 87.502 77.502 138 88 
79 138 87.502 80 138 87.502 80.498 138 88 
78 139 87.502 77.502 139 88 79 139 87.502 
80 139 87.502 80.498 139 88 78 140 87.502 
77.502 140 88 79 140 87.502 80 140 87.502 
80.498 140 88 78 141 87.502 77.502 141 88 
79 141 87.502 80 141 87.502 80.498 141 88 
78 142 87.502 77.502 142 88 79 142 87.502 
80 142 87.502 80.498 142 88 78 143 87.502 
77.502 143 88 79 143 87.502 80 143 87.502 
80.498 143 88 78 144 87.502 77.502 144 88 
79 144 87.502 80 144 87.502 80.498 144 88 
78 145 87.502 77.502 145 88 79 145 87.502 
80 145 87.502 80.498 145 88 78 146 87.502 
77.502 146 88 79 146 87.502 80 146 87.502 
80.498 146 88 78 147 87.502 77.502 147 88 
79 147 87.502 80 147 87.502 80.498 147 88 
78 148 87.502 77.502 148 88 79 148 87.502 
80 148 87.502 80.498 148 88 78 149 87.502 
77.502 149 88 79 149 87.502 80 149 87.502 
80.498 149 88 78 150 87.502 77.502 150 88 
79 150 87.502 80 150 87.502 80.498 150 88 
78 151 87.502 77.502 151 88 79 151 87.502 
80 151 87.502 80.498 151 88 78 152 87.502 
77.502 152 88 78.498 152 88 79 151.498 88 
80 151.498 88 78 152.498 88 78 102.502 89 
77.502 103 89 79 102.502 89 80 102.502 89 
81 103 88.502 81 102.502 89 81.498 103 89 
77.502 104 89 81 104 88.502 82 103.502 89 
82 104 88.502 82.498 104 89 77.502 105 89 
81 105 88.502 82 105 88.502 82.498 105 89 
77.502 106 89 81 106 88.502 82 106 88.502 
82.498 106 89 77.502 107 89 81 107 88.502 
82 107 88.502 82.498 107 89 77.502 108 89 
81 108 88.502 82 108 88.502 82.498 108 89 
77.502 109 89 81 109 88.502 82 109 88.502 
82.498 109 89 77.502 110 89 81 110 88.502 
82 110 88.502 82.498 110 89 77.502 111 89 
81 111 88.502 82 111 88.502 82.498 111 89 
77.502 112 89 81 112 88.502 82 112 88.502 
82.498 112 89 77.502 113 89 81 113 88.502 
82 113 88.502 82.498 113 89 77.502 114 89 
81 114 88.502 82 114 88.502 82.498 114 89 
77.502 115 89 81 115 88.502 82 115 88.502 
82.498 115 89 77.502 116 89 81 116 88.502 
82 116 88.502 82.498 116 89 77.502 117 89 
81 117 88.502 82 117 88.502 82.498 117 89 
77.502 118 89 81 118 88.502 82 118 88.502 
82.498 118 89 77.502 119 89 81 119 88.502 
82 119 88.502 82.498 119 89 77.502 120 89 
81 120 88.502 82 120 88.502 82.498 120 89 
77.502 121 89 81 121 88.502 82 121 88.502 
82.498 121 89 77.502 122 89 81 122 88.502 
82 122 88.502 82.498 122 89 77.502 123 89 
81 123 88.502 82 123 88.502 82.498 123 89 
77.502 124 89 81 124 88.502 82 124 88.502 
82.498 124 89 77.502 125 89 81 125 88.502 
82 125 88.502 82.498 125 89 77.502 126 89 
81 126 88.502 82 126 88.502 82.498 126 89 
77.502 127 89 81 127 88.502 82 127 88.502 
82.498 127 89 77.502 128 89 81 128 88.502 
82 128 88.502 82.498 128 89 77.502 129 89 
81 129 88.502 82 129 88.502 82.498 129 89 
77.502 130 89 81 130 88.502 82 130 88.502 
82.498 130 89 77.502 131 89 81 131 88.502 
82 131 88.502 82.498 131 89 77.502 132 89 
81 132 88.502 82 132 88.502 82.498 132 89 
77.502 133 89 81 133 88.502 82 133 88.502 
82.498 133 89 77.502 134 89 81 134 88.502 
82 134 88.502 82.498 134 89 77.502 135 89 
81 135 88.502 82 135 88.502 82.498 135 89 
77.502 136 89 81 136 88.502 82 136 88.502 
82.498 136 89 77.502 137 89 81 137 88.502 
82 137 88.502 82.498 137 89 77.502 138 89 
81 138 88.502 82 138 88.502 82.498 138 89 
77.502 139 89 81 139 88.502 82 139 88.502 
82.498 139 89 77.502 140 89 81 140 88.502 
82 140 88.502 82.498 140 89 77.502 141 89 
81 141 88.502 82 141 88.502 82.498 141 89 
77.502 142 89 81 142 88.502 82 142 88.502 
82.498 142 89 77.502 143 89 81 143 88.502 
82 143 88.502 82.498 143 89 77.502 144 89 
81 144 88.502 82 144 88.502 82.498 144 89 
77.502 145 89 81 145 88.502 82 145 88.502 
82.498 145 89 77.502 146 89 81 146 88.502 
82 146 88.502 82.498 146 89 77.502 147 89 
81 147 88.502 82 147 88.502 82.498 147 89 
77.502 148 89 81 148 88.502 82 148 88.502 
82.498 148 89 77.502 149 89 81 149 88.502 
82 149 88.502 82.498 149 89 77.502 150 89 
81 150 88.502 82 150 88.502 82.498 150 89 
77.502 151 89 81 151 88.502 82 151 88.502 
82.498 151 89 77.502 152 89 78.498 152 89 
79 151.498 89 80 151.498 89 81 151.498 89 
82 151.498 89 78 152.498 89 78 102.502 90 
77.502 103 90 79 102.502 90 80 102.502 90 
81 102.502 90 81.498 103 90 77.502 104 90 
82 103.502 90 83 104 89.502 83 103.502 90 
84 104 89.502 84 103.502 90 85 104 89.502 
85 103.502 90 85.498 104 90 77.502 105 90 
83 105 89.502 84 105 89.502 85 105 89.502 
85.498 105 90 77.502 106 90 83 106 89.502 
84 106 89.502 85 106 89.502 85.498 106 90 
77.502 107 90 83 107 89.502 84 107 89.502 
85 107 89.502 85.498 107 90 77.502 108 90 
83 108 89.502 84 108 89.502 85 108 89.502 
85.498 108 90 77.502 109 90 83 109 89.502 
84 109 89.502 85 109 89.502 85.498 109 90 
77.502 110 90 83 110 89.502 84 110 89.502 
85 110 89.502 85.498 110 90 77.502 111 90 
83 111 89.502 84 111 89.502 85 111 89.502 
85.498 111 90 77.502 112 90 83 112 89.502 
84 112 89.502 85 112 89.502 85.498 112 90 
77.502 113 90 83 113 89.502 84 113 89.502 
85 113 89.502 85.498 113 90 77.502 114 90 
83 114 89.502 84 114 89.502 85 114 89.502 
85.498 114 90 77.502 115 90 83 115 89.502 
84 115 89.502 85 115 89.502 85.498 115 90 
77.502 116 90 83 116 89.502 84 116 89.502 
85 116 89.502 85.498 116 90 77.502 117 90 
83 117 89.502 84 117 89.502 85 117 89.502 
85.498 117 90 77.502 118 90 83 118 89.502 
84 118 89.502 85 118 89.502 85.498 118 90 
77.502 119 90 83 119 89.502 84 119 89.502 
85 119 89.502 85.498 119 90 77.502 120 90 
83 120 89.502 84 120 89.502 85 120 89.502 
85.498 120 90 77.502 121 90 83 121 89.502 
84 121 89.502 85 121 89.502 85.498 121 90 
77.502 122 90 83 122 89.502 84 122 89.502 
85 122 89.502 85.498 122 90 77.502 123 90 
83 123 89.502 84 123 89.502 85 123 89.502 
85.498 123 90 77.502 124 90 83 124 89.502 
84 124 89.502 85 124 89.502 85.498 124 90 
77.502 125 90 83 125 89.502 84 125 89.502 
85 125 89.502 85.498 125 90 77.502 126 90 
83 126 89.502 84 126 89.502 85 126 89.502 
85.498 126 90 77.502 127 90 83 127 89.502 
84 127 89.502 85 127 89.502 85.498 127 90 
77.502 128 90 83 128 89.502 84 128 89.502 
85 128 89.502 85.498 128 90 77.502 129 90 
83 129 89.502 84 129 89.502 85 129 89.502 
85.498 129 90 77.502 130 90 83 130 89.502 
84 130 89.502 85 130 89.502 85.498 130 90 
77.502 131 90 83 131 89.502 84 131 89.502 
85 131 89.502 85.498 131 90 77.502 132 90 
83 132 89.502 84 132 89.502 85 132 89.502 
85.498 132 90 77.502 133 90 83 133 89.502 
84 133 89.502 85 133 89.502 85.498 133 90 
77.502 134 90 83 134 89.502 84 134 89.502 
85 134 89.502 85.498 134 90 77.502 135 90 
83 135 89.502 84 135 89.502 85 135 89.502 
85.498 135 90 77.502 136 90 83 136 89.502 
84 136 89.502 85 136 89.502 85.498 136 90 
77.502 137 90 83 137 89.502 84 137 89.502 
85 137 89.502 85.498 137 90 77.502 138 90 
83 138 89.502 84 138 89.502 85 138 89.502 
85.498 138 90 77.502 139 90 83 139 89.502 
84 139 89.502 85 139 89.502 85.498 139 90 
77.502 140 90 83 140 89.502 84 140 89.502 
85 140 89.502 85.498 140 90 77.502 141 90 
83 141 89.502 84 141 89.502 85 141 89.502 
85.498 141 90 77.502 142 90 83 142 89.502 
84 142 89.502 85 142 89.502 85.498 142 90 
77.502 143 90 83 143 89.502 84 143 89.502 
85 143 89.502 85.498 143 90 77.502 144 90 
83 144 89.502 84 144 89.502 85 144 89.502 
85.498 144 90 77.502 145 90 83 145 89.502 
84 145 89.502 85 145 89.502 85.498 145 90 
77.502 146 90 83 146 89.502 84 146 89.502 
85 146 89.502 85.498 146 90 77.502 147 90 
83 147 89.502 84 147 89.502 85 147 89.502 
[...]
POINT_DATA 21130
SCALARS scalars float
LOOKUP_TABLE default
128 128 128 128 128 128 128 128 128 
128 128 128 128 128 128 128 128 128 
128 128 128 128 128 128 128 128 128 
128 128 128 128 128 128 128 128 128 
128 128 128 128 128 128 128 128 128 
128 128 128 128 128 128 128 128 128 
128 128 128 128 128 128 128 128 128 
128 128 128 128 128 128 128 128 128 
128 128 128 128 128 128 128 128 128 
128 128 128 128 128 128 128 128 128 
128 128 128 128 128 128 128 128 128 
128 128 128 128 128 128 128 128 128 
128 128 128 128 128 128 128 128 128 
128 128 128 128 128 128 128 128 128 
128 128 128 128 128 128 128 128 128 
128 128 128 128 128 128 128 128 128 
128 128 128 128 128 128 128 128 128 
128 128 128 128 128 128 128 128 128 
128 128 128 128 128 128 128 128 128 
128 128 128 128 128 128 128 128 128 
128 128 128 128 128 128 128 128 128 
128 128 128 128 128 128 128 128 128 
128 128 128 128 128 128 128 128 128 
128 128 128 128 128 128 128 128 128 
128 128 128 128 128 128 128 128 128 
128 128 128 128 128 128 128 128 128 
128 128 128 128 128 128 128 128 128 
128 128 128 128 128 128 128 128 128 
128 128 128 128 128 128 128 128 128 
128 128 128 128 128 128 128 128 128 
128 128 128 128 128 128 128 128 128 
128 128 128 128 128 128 128 128 128 
128 128 128 128 128 128 128 128 128 
128 128 128 128 128 128 128 128 128 
128 128 128 128 128 128 128 128 128 
128 128 128 128 128 128 128 128 128 
128 128 128 128 128 128 128 128 128 
128 128 128 128 128 128 128 128 128 
128 128 128 128 128 128 128 128 128 
128 128 128 128 128 128 128 128 128 
128 128 128 128 128 128 128 128 128 
128 128 128 128 128 128 128 128 128 
128 128 128 128 128 128 128 128 128 
128 128 128 128 128 128 128 128 128 
128 128 128 128 128 128 128 128 128 
128 128 128 128 128 128 128 128 128 
128 128 128 128 128 128 128 128 128 
128 128 128 128 128 128 128 128 128 
128 128 128 128 128 128 128 128 128 
128 128 128 128 128 128 128 128 128 
128 128 128 128 128 128 128 128 128 
128 128 128 128 128 128 128 128 128 
128 128 128 128 128 128 128 128 128 
128 128 128 128 128 128 128 128 128 
128 128 128 128 128 128 128 128 128 
128 128 128 128 128 128 128 128 128 
128 128 128 128 128 128 128 128 128 
128 128 128 128 128 128 128 128 128 
128 128 128 128 128 128 128 128 128 
128 128 128 128 128 128 128 128 128 
128 128 128 128 128 128 128 128 128 
128 128 128 128 128 128 128 128 128 
128 128 128 128 128 128 128 128 128 
128 128 128 128 128 128 128 128 128 
128 128 128 128 128 128 128 128 128 
128 128 128 128 128 128 128 128 128 
128 128 128 128 128 128 128 128 128 
128 128 128 128 128 128 128 128 128 
128 128 128 128 128 128 128 128 128 
128 128 128 128 128 128 128 128 128 
128 128 128 128 128 128 128 128 128 
128 128 128 128 128 128 128 128 128 
128 128 128 128 128 128 128 128 128 
128 128 128 128 128 128 128 128 128 
128 128 128 128 128 128 128 128 128 
128 128 128 128 128 128 128 128 128 
128 128 128 128 128 128 128 128 128 
128 128 128 128 128 128 128 128 128 
128 128 128 128 128 128 128 128 128 
128 128 128 128 128 128 128 128 128 
128 128 128 128 128 128 128 128 128 
128 128 128 128 128 128 128 128 128 
128 128 128 128 128 128 128 128 128 
128 128 128 128 128 128 128 128 128 
128 128 128 128 128 128 128 128 128 
128 128 128 128 128 128 128 128 128 
128 128 128 128 128 128 128 128 128 
128 128 128 128 128 128 128 128 128 
128 128 128 128 128 128 128 128 128 
128 128 128 128 128 128 128 128 128 
128 128 128 128 128 128 128 128 128 
128 128 128 128 128 128 128 128 128 
128 128 128 128 128 128 128 128 128 
128 128 128 128 128 128 128 128 128 
128 128 128 128 128 128 128 128 128 
128 128 128 128 128 128 128 128 128 
128 128 128 128 128 128 128 128 128 
128 128 128 128 128 128 128 128 128 
128 128 128 128 128 128 128 128 128 
128 128 128 128 128 128 128 128 128 
128 128 128 128 128 128 128 128 128 
128 128 128 128 128 128 128 128 128 
128 128 128 128 128 128 128 128 128 
128 128 128 128 128 128 128 128 128 
128 128 128 128 128 128 128 128 128 
128 128 128 128 128 128 128 128 128 
128 128 128 128 128 128 128 128 128 
128 128 128 128 128 128 128 128 128 
128 128 128 128 128 128 128 128 128 
128 128 128 128 128 128 128 128 128 
128 128 128 128 128 128 128 128 128 
128 128 128 128 128 128 128 128 128 
128 128 128 128 128 128 128 128 128 
128 128 128 128 128 128 128 128 128 
128 128 128 128 128 128 128 128 128 
128 128 128 128 128 128 128 128 128 
128 128 128 128 128 128 128 128 128 
128 128 128 128 128 128 128 128 128 
128 128 128 128 128 128 128 128 128 
128 128 128 128 128 128 128 128 128 
128 128 128 128 128 128 128 128 128 
128 128 128 128 128 128 128 128 128 
128 128 128 128 128 128 128 128 128 
128 128 128 128 128 128 128 128 128 
128 128 128 128 128 128 128 128 128 
128 128 128 128 128 128 128 128 128 
128 128 128 128 128 128 128 128 128 
128 128 128 128 128 128 128 128 128 
128 128 128 128 128 128 128 128 128 
128 128 128 128 128 128 128 128 128 
128 128 128 128 128 128 128 128 128 
128 128 128 128 128 128 128 128 128 
128 128 128 128 128 128 128 128 128 
128 128 128 128 128 128 128 128 128 
128 128 128 128 128 128 128 128 128 
128 128 128 128 128 128 128 128 128 
128 128 128 128 128 128 128 128 128 
128 128 128 128 128 128 128 128 128 
128 128 128 128 128 128 128 128 128 
128 128 128 128 128 128 128 128 128 
128 128 128 128 128 128 128 128 128 
128 128 128 128 128 128 128 128 128 
128 128 128 128 128 128 128 128 128 
128 128 128 128 128 128 128 128 128 
128 128 128 128 128 128 128 128 128 
128 128 128 128 128 128 128 128 128 
128 128 128 128 128 128 128 128 128 
128 128 128 128 128 128 128 128 128 
128 128 128 128 128 128 128 128 128 
128 128 128 128 128 128 128 128 128 
128 128 128 128 128 128 128 128 128 
128 128 128 128 128 128 128 128 128 
128 128 128 128 128 128 128 128 128 
128 128 128 128 128 128 128 128 128 
128 128 128 128 128 128 128 128 128 
128 128 128 128 128 128 128 128 128 
128 128 128 128 128 128 128 128 128 
128 128 128 128 128 128 128 128 128 
128 128 128 128 128 128 128 128 128 
128 128 128 128 128 128 128 128 128 
128 128 128 128 128 128 128 128 128 
128 128 128 128 128 128 128 128 128 
128 128 128 128 128 128 128 128 128 
128 128 128 128 128 128 128 128 128 
128 128 128 128 128 128 128 128 128 
128 128 128 128 128 128 128 128 128 
128 128 128 128 128 128 128 128 128 
128 128 128 128 128 128 128 128 128 
128 128 128 128 128 128 128 128 128 
128 128 128 128 128 128 128 128 128 
128 128 128 128 128 128 128 128 128 
128 128 128 128 128 128 128 128 128 
128 128 128 128 128 128 128 128 128 
128 128 128 128 128 128 128 128 128 
128 128 128 128 128 128 128 128 128 
128 128 128 128 128 128 128 128 128 
128 128 128 128 128 128 128 128 128 
128 128 128 128 128 128 128 128 128 
128 128 128 128 128 128 128 128 128 
128 128 128 128 128 128 128 128 128 
128 128 128 128 128 128 128 128 128 
128 128 128 128 128 128 128 128 128 
128 128 128 128 128 128 128 128 128 
128 128 128 128 128 128 128 128 128 
128 128 128 128 128 128 128 128 128 
128 128 128 128 128 128 128 128 128 
128 128 128 128 128 128 128 128 128 
128 128 128 128 128 128 128 128 128 
128 128 128 128 128 128 128 128 128 
128 128 128 128 128 128 128 128 128 
128 128 128 128 128 128 128 128 128 
128 128 128 128 128 128 128 128 128 
128 128 128 128 128 128 128 128 128 
128 128 128 128 128 128 128 128 128 
128 128 128 128 128 128 128 128 128 
128 128 128 128 128 128 128 128 128 
128 128 128 128 128 128 128 128 128 
128 128 128 128 128 128 128 128 128 
128 128 128 128 128 128 128 128 128 
128 128 128 128 128 128 128 128 128 
128 128 128 128 128 128 128 128 128 
128 128 128 128 128 128 128 128 128 
128 128 128 128 128 128 128 128 128 
128 128 128 128 128 128 128 128 128 
128 128 128 128 128 128 128 128 128 
128 128 128 128 128 128 128 128 128 
128 128 128 128 128 128 128 128 128 
128 128 128 128 128 128 128 128 128 
128 128 128 128 128 128 128 128 128 
128 128 128 128 128 128 128 128 128 
128 128 128 128 128 128 128 128 128 
128 128 128 128 128 128 128 128 128 
128 128 128 128 128 128 128 128 128 
128 128 128 128 128 128 128 128 128 
128 128 128 128 128 128 128 128 128 
128 128 128 128 128 128 128 128 128 
128 128 128 128 128 128 128 128 128 
128 128 128 128 128 128 128 128 128 
128 128 128 128 128 128 128 128 128 
128 128 128 128 128 128 128 128 128 
128 128 128 128 128 128 128 128 128 
128 128 128 128 128 128 128 128 128 
128 128 128 128 128 128 128 128 128 
128 128 128 128 128 128 128 128 128 
128 128 128 128 128 128 128 128 128 
128 128 128 128 128 128 128 128 128 
128 128 128 128 128 128 128 128 128 
128 128 128 128 128 128 128 128 128 
128 128 128 128 128 128 128 128 128 
128 128 128 128 128 128 128 128 128 
128 128 128 128 128 128 128 128 128 
128 128 128 128 128 128 128 128 128 
128 128 128 128 128 128 128 128 128 
128 128 128 128 128 128 128 128 128 
128 128 128 128 128 128 128 128 128 
128 128 128 128 128 128 128 128 128 
128 128 128 128 128 128 128 128 128 
128 128 128 128 128 128 128 128 128 
128 128 128 128 128 128 128 128 128 
128 128 128 128 128 128 128 128 128 
128 128 128 128 128 128 128 128 128 
128 128 128 128 128 128 128 128 128 
128 128 128 128 128 128 128 128 128 
128 128 128 128 128 128 128 128 128 
128 128 128 128 128 128 128 128 128 
128 128 128 128 128 128 128 128 128 
128 128 128 128 128 128 128 128 128 
128 128 128 128 128 128 128 128 128 
128 128 128 128 128 128 128 128 128 
128 128 128 128 128 128 128 128 128 
128 128 128 128 128 128 128 128 128 
128 128 128 128 128 128 128 128 128 
128 128 128 128 128 128 128 128 128 
128 128 128 128 128 128 128 128 128 
128 128 128 128 128 128 128 128 128 
128 128 128 128 128 128 128 128 128 
128 128 128 128 128 128 128 128 128 
128 128 128 128 128 128 128 128 128 
128 128 128 128 128 128 128 128 128 
128 128 128 128 128 128 128 128 128 
128 128 128 128 128 128 128 128 128 
128 128 128 128 128 128 128 128 128 
128 128 128 128 128 128 128 128 128 
128 128 128 128 128 128 128 128 128 
128 128 128 128 128 128 128 128 128 
128 128 128 128 128 128 128 128 128 
128 128 128 128 128 128 128 128 128 
128 128 128 128 128 128 128 128 128 
128 128 128 128 128 128 128 128 128 
128 128 128 128 128 128 128 128 128 
128 128 128 128 128 128 128 128 128 
128 128 128 128 128 128 128 128 128 
128 128 128 128 128 128 128 128 128 
128 128 128 128 128 128 128 128 128 
128 128 128 128 128 128 128 128 128 
128 128 128 128 128 128 128 128 128 
128 128 128 128 128 128 128 128 128 
128 128 128 128 128 128 128 128 128 
128 128 128 128 128 128 128 128 128 
128 128 128 128 128 128 128 128 128 
128 128 128 128 128 128 128 128 128 
128 128 128 128 128 128 128 128 128 
128 128 128 128 128 128 128 128 128 
128 128 128 128 128 128 128 128 128 
128 128 128 128 128 128 128 128 128 
128 128 128 128 128 128 128 128 128 
128 128 128 128 128 128 128 128 128 
128 128 128 128 128 128 128 128 128 
128 128 128 128 128 128 128 128 128 
128 128 128 128 128 128 128 128 128 
128 128 128 128 128 128 128 128 128 
128 128 128 128 128 128 128 128 128 
128 128 128 128 128 128 128 128 128 
128 128 128 128 128 128 128 128 128 
128 128 128 128 128 128 128 128 128 
128 128 128 128 128 128 128 128 128 
128 128 128 128 128 128 128 128 128 
128 128 128 128 128 128 128 128 128 
128 128 128 128 128 128 128 128 128 
128 128 128 128 128 128 128 128 128 
128 128 128 128 128 128 128 128 128 
128 128 128 128 128 128 128 128 128 
128 128 128 128 128 128 128 128 128 
128 128 128 128 128 128 128 128 128 
128 128 128 128 128 128 128 128 128 
128 128 128 128 128 128 128 128 128 
128 128 128 128 128 128 128 128 128 
128 128 128 128 128 128 128 128 128 
128 128 128 128 128 128 128 128 128 
128 128 128 128 128 128 128 128 128 
128 128 128 128 128 128 128 128 128 
128 128 128 128 128 128 128 128 128 
128 128 128 128 128 128 128 128 128 
128 128 128 128 128 128 128 128 128 
128 128 128 128 128 128 128 128 128 
128 128 128 128 128 128 128 128 128 
128 128 128 128 128 128 128 128 128 
128 128 128 128 128 128 128 128 128 
128 128 128 128 128 128 128 128 128 
128 128 128 128 128 128 128 128 128 
128 128 128 128 128 128 128 128 128 
128 128 128 128 128 128 128 128 128 
128 128 128 128 128 128 128 128 128 
128 128 128 128 128 128 128 128 128 
128 128 128 128 128 128 128 128 128 
128 128 128 128 128 128 128 128 128 
128 128 128 128 128 128 128 128 128 
128 128 128 128 128 128 128 128 128 
128 128 128 128 128 128 128 128 128 
128 128 128 128 128 128 128 128 128 
128 128 128 128 128 128 128 128 128 
128 128 128 128 128 128 128 128 128 
128 128 128 128 128 128 128 128 128 
128 128 128 128 128 128 128 128 128 
128 128 128 128 128 128 128 128 128 
128 128 128 128 128 128 128 128 128 
128 128 128 128 128 128 128 128 128 
128 128 128 128 128 128 128 128 128 
128 128 128 128 128 128 128 128 128 
128 128 128 128 128 128 128 128 128 
128 128 128 128 128 128 128 128 128 
128 128 128 128 128 128 128 128 128 
128 128 128 128 128 128 128 128 128 
128 128 128 128 128 128 128 128 128 
128 128 128 128 128 128 128 128 128 
128 128 128 128 128 128 128 128 128 
128 128 128 128 128 128 128 128 128 
128 128 128 128 128 128 128 128 128 
128 128 128 128 128 128 128 128 128 
128 128 128 128 128 128 128 128 128 
128 128 128 128 128 128 128 128 128 
128 128 128 128 128 128 128 128 128 
128 128 128 128 128 128 128 128 128 
128 128 128 128 128 128 128 128 128 
128 128 128 128 128 128 128 128 128 
128 128 128 128 128 128 128 128 128 
128 128 128 128 128 128 128 128 128 
128 128 128 128 128 128 128 128 128 
128 128 128 128 128 128 128 128 128 
128 128 128 128 128 128 128 128 128 
128 128 128 128 128 128 128 128 128 
128 128 128 128 128 128 128 128 128 
128 128 128 128 128 128 128 128 128 
128 128 128 128 128 128 128 128 128 
128 128 128 128 128 128 128 128 128 
128 128 128 128 128 128 128 128 128 
128 128 128 128 128 128 128 128 128 
128 128 128 128 128 128 128 128 128 
128 128 128 128 128 128 128 128 128 
128 128 128 128 128 128 128 128 128 
128 128 128 128 128 128 128 128 128 
128 128 128 128 128 128 128 128 128 
128 128 128 128 128 128 128 128 128 
128 128 128 128 128 128 128 128 128 
128 128 128 128 128 128 128 128 128 
128 128 128 128 128 128 128 128 128 
128 128 128 128 128 128 128 128 128 
128 128 128 128 128 128 128 128 128 
128 128 128 128 128 128 128 128 128 
128 128 128 128 128 128 128 128 128 
128 128 128 128 128 128 128 128 128 
128 128 128 128 128 128 128 128 128 
128 128 128 128 128 128 128 128 128 
128 128 128 128 128 128 128 128 128 
128 128 128 128 128 128 128 128 128 
128 128 128 128 128 128 128 128 128 
128 128 128 128 128 128 128 128 128 
128 128 128 128 128 128 128 128 128 
128 128 128 128 128 128 128 128 128 
128 128 128 128 128 128 128 128 128 
128 128 128 128 128 128 128 128 128 
128 128 128 128 128 128 128 128 128 
128 128 128 128 128 128 128 128 128 
128 128 128 128 128 128 128 128 128 
128 128 128 128 128 128 128 128 128 
128 128 128 128 128 128 128 128 128 
128 128 128 128 128 128 128 128 128 
128 128 128 128 128 128 128 128 128 
128 128 128 128 128 128 128 128 128 
128 128 128 128 128 128 128 128 128 
128 128 128 128 128 128 128 128 128 
128 128 128 128 128 128 128 128 128 
128 128 128 128 128 128 128 128 128 
128 128 128 128 128 128 128 128 128 
128 128 128 128 128 128 128 128 128 
128 128 128 128 128 128 128 128 128 
128 128 128 128 128 128 128 128 128 
128 128 128 128 128 128 128 128 128 
128 128 128 128 128 128 128 128 128 
128 128 128 128 128 128 128 128 128 
128 128 128 128 128 128 128 128 128 
128 128 128 128 128 128 128 128 128 
128 128 128 128 128 128 128 128 128 
128 128 128 128 128 128 128 128 128 
128 128 128 128 128 128 128 128 128 
128 128 128 128 128 128 128 128 128 
128 128 128 128 128 128 128 128 128 
128 128 128 128 128 128 128 128 128 
128 128 128 128 128 128 128 128 128 
128 128 128 128 128 128 128 128 128 
128 128 128 128 128 128 128 128 128 
128 128 128 128 128 128 128 128 128 
128 128 128 128 128 128 128 128 128 
128 128 128 128 128 128 128 128 128 
128 128 128 128 128 128 128 128 128 
128 128 128 128 128 128 128 128 128 
128 128 128 128 128 128 128 128 128 
128 128 128 128 128 128 128 128 128 
128 128 128 128 128 128 128 128 128 
128 128 128 128 128 128 128 128 128 
128 128 128 128 128 128 128 128 128 
128 128 128 128 128 128 128 128 128 
128 128 128 128 128 128 128 128 128 
128 128 128 128 128 128 128 128 128 
128 128 128 128 128 128 128 128 128 
128 128 128 128 128 128 128 128 128 
128 128 128 128 128 128 128 128 128 
128 128 128 128 128 128 128 128 128 
128 128 128 128 128 128 128 128 128 
128 128 128 128 128 128 128 128 128 
128 128 128 128 128 128 128 128 128 
128 128 128 128 128 128 128 128 128 
128 128 128 128 128 128 128 128 128 
128 128 128 128 128 128 128 128 128 
128 128 128 128 128 128 128 128 128 
128 128 128 128 128 128 128 128 128 
128 128 128 128 128 128 128 128 128 
128 128 128 128 128 128 128 128 128 
128 128 128 128 128 128 128 128 128 
128 128 128 128 128 128 128 128 128 
128 128 128 128 128 128 128 128 128 
128 128 128 128 128 128 128 128 128 
128 128 128 128 128 128 128 128 128 
128 128 128 128 128 128 128 128 128 
128 128 128 128 128 128 128 128 128 
128 128 128 128 128 128 128 128 128 
128 128 128 128 128 128 128 128 128 
128 128 128 128 128 128 128 128 128 
128 128 128 128 128 128 128 128 128 
128 128 128 128 128 128 128 128 128 
128 128 128 128 128 128 128 128 128 
128 128 128 128 128 128 128 128 128 
128 128 128 128 128 128 128 128 128 
128 128 128 128 128 128 128 128 128 
128 128 128 128 128 128 128 128 128 
128 128 128 128 128 128 128 128 128 
128 128 128 128 128 128 128 128 128 
128 128 128 128 128 128 128 128 128 
128 128 128 128 128 128 128 128 128 
128 128 128 128 128 128 128 128 128 
128 128 128 128 128 128 128 128 128 
128 128 128 128 128 128 128 128 128 
128 128 128 128 128 128 128 128 128 
128 128 128 128 128 128 128 128 128 
128 128 128 128 128 128 128 128 128 
128 128 128 128 128 128 128 128 128 
128 128 128 128 128 128 128 128 128 
128 128 128 128 128 128 128 128 128 
128 128 128 128 128 128 128 128 128 
128 128 128 128 128 128 128 128 128 
128 128 128 128 128 128 128 128 128 
128 128 128 128 128 128 128 128 128 
128 128 128 128 128 128 128 128 128 
128 128 128 128 128 128 128 128 128 
128 128 128 128 128 128 128 128 128 
128 128 128 128 128 128 128 128 128 
128 128 128 128 128 128 128 128 128 
128 128 128 128 128 128 128 128 128 
128 128 128 128 128 128 128 128 128 
128 128 128 128 128 128 128 128 128 
128 128 128 128 128 128 128 128 128 
128 128 128 128 128 128 128 128 128 
128 128 128 128 128 128 128 128 128 
128 128 128 128 128 128 128 128 128 
128 128 128 128 128 128 128 128 128 
128 128 128 128 128 128 128 128 128 
128 128 128 128 128 128 128 128 128 
128 128 128 128 128 128 128 128 128 
128 128 128 128 128 128 128 128 128 
128 128 128 128 128 128 128 128 128 
128 128 128 128 128 128 128 128 128 
128 128 128 128 128 128 128 128 128 
128 128 128 128 128 128 128 128 128 
128 128 128 128 128 128 128 128 128 
128 128 128 128 128 128 128 128 128 
128 128 128 128 128 128 128 128 128 
128 128 128 128 128 128 128 128 128 
128 128 128 128 128 128 128 128 128 
128 128 128 128 128 128 128 128 128 
128 128 128 128 128 128 128 128 128 
128 128 128 128 128 128 128 128 128 
128 128 128 128 128 128 128 128 128 
128 128 128 128 128 128 128 128 128 
128 128 128 128 128 128 128 128 128 
128 128 128 128 128 128 128 128 128 
128 128 128 128 128 128 128 128 128 
128 128 128 128 128 128 128 128 128 
128 128 128 128 128 128 128 128 128 
128 128 128 128 128 128 128 128 128 
128 128 128 128 128 128 128 128 128 
128 128 128 128 128 128 128 128 128 
128 128 128 128 128 128 128 128 128 
128 128 128 128 128 128 128 128 128 
128 128 128 128 128 128 128 128 128 
128 128 128 128 128 128 128 128 128 
128 128 128 128 128 128 128 128 128 
128 128 128 128 128 128 128 128 128 
128 128 128 128 128 128 128 128 128 
128 128 128 128 128 128 128 128 128 
128 128 128 128 128 128 128 128 128 
128 128 128 128 128 128 128 128 128 
128 128 128 128 128 128 128 128 128 
128 128 128 128 128 128 128 128 128 
128 128 128 128 128 128 128 128 128 
128 128 128 128 128 128 128 128 128 
128 128 128 128 128 128 128 128 128 
128 128 128 128 128 128 128 128 128 
128 128 128 128 128 128 128 128 128 