# vtk DataFile Version 5.1
vtk output
ASCII
DATASET POLYDATA
POINTS 30150 float
128 128 87.502 128 127.502 88 127.502 128 88 
128.498 128 88 128 128.498 88 125 120 88.502 
125 119.502 89 124.502 120 89 126 120 88.502 
126 119.502 89 127 120 88.502 127 119.502 89 
128 120 88.502 128 119.502 89 129 120 88.502 
129 119.502 89 130 120 88.502 130 119.502 89 
131 120 88.502 131 119.502 89 131.498 120 89 
123 121 88.502 123 120.502 89 122.502 121 89 
124 121 88.502 124 120.502 89 125 121 88.502 
126 121 88.502 127 121 88.502 128 121 88.502 
129 121 88.502 130 121 88.502 131 121 88.502 
132 120.502 89 132 121 88.502 133 121 88.502 
133 120.502 89 133.498 121 89 122 122 88.502 
122 121.502 89 121.502 122 89 123 122 88.502 
124 122 88.502 125 122 88.502 126 122 88.502 
127 122 88.502 128 122 88.502 129 122 88.502 
130 122 88.502 131 122 88.502 132 122 88.502 
133 122 88.502 134 121.502 89 134 122 88.502 
134.498 122 89 121 123 88.502 121 122.502 89 
120.502 123 89 122 123 88.502 123 123 88.502 
124 123 88.502 125 123 88.502 126 123 88.502 
127 123 88.502 128 123 88.502 129 123 88.502 
130 123 88.502 131 123 88.502 132 123 88.502 
133 123 88.502 134 123 88.502 135 122.502 89 
135 123 88.502 135.498 123 89 121 124 88.502 
120.502 124 89 122 124 88.502 123 124 88.502 
124 124 88.502 125 124 88.502 126 124 88.502 
127 124 88.502 128 124 88.502 129 124 88.502 
130 124 88.502 131 124 88.502 132 124 88.502 
133 124 88.502 134 124 88.502 135 124 88.502 
135.498 124 89 120 125 88.502 120 124.502 89 
119.502 125 89 121 125 88.502 122 125 88.502 
123 125 88.502 124 125 88.502 125 125 88.502 
126 125 88.502 127 125 88.502 128 125 88.502 
129 125 88.502 130 125 88.502 131 125 88.502 
132 125 88.502 133 125 88.502 134 125 88.502 
135 125 88.502 136 124.502 89 136 125 88.502 
136.498 125 89 120 126 88.502 119.502 126 89 
121 126 88.502 122 126 88.502 123 126 88.502 
124 126 88.502 125 126 88.502 126 126 88.502 
127 126 88.502 128 126 88.502 129 126 88.502 
130 126 88.502 131 126 88.502 132 126 88.502 
133 126 88.502 134 126 88.502 135 126 88.502 
136 126 88.502 136.498 126 89 120 127 88.502 
119.502 127 89 121 127 88.502 122 127 88.502 
123 127 88.502 124 127 88.502 125 127 88.502 
126 127 88.502 127 127 88.502 128 127 88.502 
129 127 88.502 130 127 88.502 131 127 88.502 
132 127 88.502 133 127 88.502 134 127 88.502 
135 127 88.502 136 127 88.502 136.498 127 89 
120 128 88.502 119.502 128 89 121 128 88.502 
122 128 88.502 123 128 88.502 124 128 88.502 
125 128 88.502 126 128 88.502 127 128 88.502 
129 128 88.502 130 128 88.502 131 128 88.502 
132 128 88.502 133 128 88.502 134 128 88.502 
135 128 88.502 136 128 88.502 136.498 128 89 
120 129 88.502 119.502 129 89 121 129 88.502 
122 129 88.502 123 129 88.502 124 129 88.502 
125 129 88.502 126 129 88.502 127 129 88.502 
128 129 88.502 129 129 88.502 130 129 88.502 
131 129 88.502 132 129 88.502 133 129 88.502 
134 129 88.502 135 129 88.502 136 129 88.502 
136.498 129 89 120 130 88.502 119.502 130 89 
121 130 88.502 122 130 88.502 123 130 88.502 
124 130 88.502 125 130 88.502 126 130 88.502 
127 130 88.502 128 130 88.502 129 130 88.502 
130 130 88.502 131 130 88.502 132 130 88.502 
133 130 88.502 134 130 88.502 135 130 88.502 
136 130 88.502 136.498 130 89 120 131 88.502 
119.502 131 89 121 131 88.502 122 131 88.502 
123 131 88.502 124 131 88.502 125 131 88.502 
126 131 88.502 127 131 88.502 128 131 88.502 
129 131 88.502 130 131 88.502 131 131 88.502 
132 131 88.502 133 131 88.502 134 131 88.502 
135 131 88.502 136 131 88.502 136.498 131 89 
120 131.498 89 120.502 132 89 121 132 88.502 
122 132 88.502 123 132 88.502 124 132 88.502 
125 132 88.502 126 132 88.502 127 132 88.502 
128 132 88.502 129 132 88.502 130 132 88.502 
131 132 88.502 132 132 88.502 133 132 88.502 
134 132 88.502 135 132 88.502 135.498 132 89 
136 131.498 89 121 133 88.502 120.502 133 89 
122 133 88.502 123 133 88.502 124 133 88.502 
125 133 88.502 126 133 88.502 127 133 88.502 
128 133 88.502 129 133 88.502 130 133 88.502 
131 133 88.502 132 133 88.502 133 133 88.502 
134 133 88.502 135 133 88.502 135.498 133 89 
121 133.498 89 121.502 134 89 122 134 88.502 
123 134 88.502 124 134 88.502 125 134 88.502 
126 134 88.502 127 134 88.502 128 134 88.502 
129 134 88.502 130 134 88.502 131 134 88.502 
132 134 88.502 133 134 88.502 134 134 88.502 
134.498 134 89 135 133.498 89 122 134.498 89 
122.502 135 89 123 135 88.502 124 135 88.502 
125 135 88.502 126 135 88.502 127 135 88.502 
128 135 88.502 129 135 88.502 130 135 88.502 
131 135 88.502 132 135 88.502 133 135 88.502 
133.498 135 89 134 134.498 89 123 135.498 89 
124 135.498 89 124.502 136 89 125 136 88.502 
126 136 88.502 127 136 88.502 128 136 88.502 
129 136 88.502 130 136 88.502 131 136 88.502 
131.498 136 89 132 135.498 89 133 135.498 89 
125 136.498 89 126 136.498 89 127 136.498 89 
128 136.498 89 129 136.498 89 130 136.498 89 
131 136.498 89 125 116 89.502 125 115.502 90 
124.502 116 90 126 116 89.502 126 115.502 90 
127 116 89.502 127 115.502 90 128 116 89.502 
128 115.502 90 129 116 89.502 129 115.502 90 
130 116 89.502 130 115.502 90 131 116 89.502 
131 115.502 90 131.498 116 90 123 117 89.502 
123 116.502 90 122.502 117 90 124 117 89.502 
124 116.502 90 125 117 89.502 126 117 89.502 
127 117 89.502 128 117 89.502 129 117 89.502 
130 117 89.502 131 117 89.502 132 116.502 90 
132 117 89.502 133 117 89.502 133 116.502 90 
133.498 117 90 121 118 89.502 121 117.502 90 
120.502 118 90 122 118 89.502 122 117.502 90 
123 118 89.502 124 118 89.502 125 118 89.502 
126 118 89.502 127 118 89.502 128 118 89.502 
129 118 89.502 130 118 89.502 131 118 89.502 
132 118 89.502 133 118 89.502 134 117.502 90 
134 118 89.502 135 118 89.502 135 117.502 90 
135.498 118 90 120 119 89.502 120 118.502 90 
119.502 119 90 121 119 89.502 122 119 89.502 
123 119 89.502 124 119 89.502 125 119 89.502 
126 119 89.502 127 119 89.502 128 119 89.502 
129 119 89.502 130 119 89.502 131 119 89.502 
132 119 89.502 133 119 89.502 134 119 89.502 
135 119 89.502 136 118.502 90 136 119 89.502 
136.498 119 90 119 120 89.502 119 119.502 90 
118.502 120 90 120 120 89.502 121 120 89.502 
122 120 89.502 123 120 89.502 124 120 89.502 
132 120 89.502 133 120 89.502 134 120 89.502 
135 120 89.502 136 120 89.502 137 119.502 90 
137 120 89.502 137.498 120 90 118 121 89.502 
118 120.502 90 117.502 121 90 119 121 89.502 
120 121 89.502 121 121 89.502 122 121 89.502 
134 121 89.502 135 121 89.502 136 121 89.502 
137 121 89.502 138 120.502 90 138 121 89.502 
138.498 121 90 118 122 89.502 117.502 122 90 
119 122 89.502 120 122 89.502 121 122 89.502 
135 122 89.502 136 122 89.502 137 122 89.502 
138 122 89.502 138.498 122 90 117 123 89.502 
117 122.502 90 116.502 123 90 118 123 89.502 
119 123 89.502 120 123 89.502 136 123 89.502 
137 123 89.502 138 123 89.502 139 122.502 90 
139 123 89.502 139.498 123 90 117 124 89.502 
116.502 124 90 118 124 89.502 119 124 89.502 
120 124 89.502 136 124 89.502 137 124 89.502 
138 124 89.502 139 124 89.502 139.498 124 90 
116 125 89.502 116 124.502 90 115.502 125 90 
117 125 89.502 118 125 89.502 119 125 89.502 
137 125 89.502 138 125 89.502 139 125 89.502 
140 124.502 90 140 125 89.502 140.498 125 90 
116 126 89.502 115.502 126 90 117 126 89.502 
118 126 89.502 119 126 89.502 137 126 89.502 
138 126 89.502 139 126 89.502 140 126 89.502 
140.498 126 90 116 127 89.502 115.502 127 90 
117 127 89.502 118 127 89.502 119 127 89.502 
137 127 89.502 138 127 89.502 139 127 89.502 
140 127 89.502 140.498 127 90 116 128 89.502 
115.502 128 90 117 128 89.502 118 128 89.502 
119 128 89.502 137 128 89.502 138 128 89.502 
139 128 89.502 140 128 89.502 140.498 128 90 
116 129 89.502 115.502 129 90 117 129 89.502 
118 129 89.502 119 129 89.502 137 129 89.502 
138 129 89.502 139 129 89.502 140 129 89.502 
140.498 129 90 116 130 89.502 115.502 130 90 
117 130 89.502 118 130 89.502 119 130 89.502 
137 130 89.502 138 130 89.502 139 130 89.502 
140 130 89.502 140.498 130 90 116 131 89.502 
115.502 131 90 117 131 89.502 118 131 89.502 
119 131 89.502 137 131 89.502 138 131 89.502 
139 131 89.502 140 131 89.502 140.498 131 90 
116 131.498 90 116.502 132 90 117 132 89.502 
118 132 89.502 119 132 89.502 120 132 89.502 
136 132 89.502 137 132 89.502 138 132 89.502 
139 132 89.502 139.498 132 90 140 131.498 90 
117 133 89.502 116.502 133 90 118 133 89.502 
119 133 89.502 120 133 89.502 136 133 89.502 
137 133 89.502 138 133 89.502 139 133 89.502 
139.498 133 90 117 133.498 90 117.502 134 90 
118 134 89.502 119 134 89.502 120 134 89.502 
121 134 89.502 135 134 89.502 136 134 89.502 
137 134 89.502 138 134 89.502 138.498 134 90 
139 133.498 90 118 135 89.502 117.502 135 90 
119 135 89.502 120 135 89.502 121 135 89.502 
122 135 89.502 134 135 89.502 135 135 89.502 
136 135 89.502 137 135 89.502 138 135 89.502 
138.498 135 90 118 135.498 90 118.502 136 90 
119 136 89.502 120 136 89.502 121 136 89.502 
122 136 89.502 123 136 89.502 124 136 89.502 
132 136 89.502 133 136 89.502 134 136 89.502 
135 136 89.502 136 136 89.502 137 136 89.502 
137.498 136 90 138 135.498 90 119 136.498 90 
119.502 137 90 120 137 89.502 121 137 89.502 
122 137 89.502 123 137 89.502 124 137 89.502 
125 137 89.502 126 137 89.502 127 137 89.502 
128 137 89.502 129 137 89.502 130 137 89.502 
131 137 89.502 132 137 89.502 133 137 89.502 
134 137 89.502 135 137 89.502 136 137 89.502 
136.498 137 90 137 136.498 90 120 137.498 90 
120.502 138 90 121 138 89.502 122 138 89.502 
123 138 89.502 124 138 89.502 125 138 89.502 
126 138 89.502 127 138 89.502 128 138 89.502 
129 138 89.502 130 138 89.502 131 138 89.502 
132 138 89.502 133 138 89.502 134 138 89.502 
135 138 89.502 135.498 138 90 136 137.498 90 
121 138.498 90 122 138.498 90 122.502 139 90 
123 139 89.502 124 139 89.502 125 139 89.502 
126 139 89.502 127 139 89.502 128 139 89.502 
129 139 89.502 130 139 89.502 131 139 89.502 
132 139 89.502 133 139 89.502 133.498 139 90 
134 138.498 90 135 138.498 90 123 139.498 90 
124 139.498 90 124.502 140 90 125 140 89.502 
[...]
POINT_DATA 30150
SCALARS scalars float
LOOKUP_TABLE default
128 128 128 128 128 128 128 128 128 
128 128 128 128 128 128 128 128 128 
128 128 128 128 128 128 128 128 128 
128 128 128 128 128 128 128 128 128 
128 128 128 128 128 128 128 128 128 
128 128 128 128 128 128 128 128 128 
128 128 128 128 128 128 128 128 128 
128 128 128 128 128 128 128 128 128 
128 128 128 128 128 128 128 128 128 
128 128 128 128 128 128 128 128 128 
128 128 128 128 128 128 128 128 128 
128 128 128 128 128 128 128 128 128 
128 128 128 128 128 128 128 128 128 
128 128 128 128 128 128 128 128 128 
128 128 128 128 128 128 128 128 128 
128 128 128 128 128 128 128 128 128 
128 128 128 128 128 128 128 128 128 
128 128 128 128 128 128 128 128 128 
128 128 128 128 128 128 128 128 128 
128 128 128 128 128 128 128 128 128 
128 128 128 128 128 128 128 128 128 
128 128 128 128 128 128 128 128 128 
128 128 128 128 128 128 128 128 128 
128 128 128 128 128 128 128 128 128 
128 128 128 128 128 128 128 128 128 
128 128 128 128 128 128 128 128 128 
128 128 128 128 128 128 128 128 128 
128 128 128 128 128 128 128 128 128 
128 128 128 128 128 128 128 128 128 
128 128 128 128 128 128 128 128 128 
128 128 128 128 128 128 128 128 128 
128 128 128 128 128 128 128 128 128 
128 128 128 128 128 128 128 128 128 
128 128 128 128 128 128 128 128 128 
128 128 128 128 128 128 128 128 128 
128 128 128 128 128 128 128 128 128 
128 128 128 128 128 128 128 128 128 
128 128 128 128 128 128 128 128 128 
128 128 128 128 128 128 128 128 128 
128 128 128 128 128 128 128 128 128 
128 128 128 128 128 128 128 128 128 
128 128 128 128 128 128 128 128 128 
128 128 128 128 128 128 128 128 128 
128 128 128 128 128 128 128 128 128 
128 128 128 128 128 128 128 128 128 
128 128 128 128 128 128 128 128 128 
128 128 128 128 128 128 128 128 128 
128 128 128 128 128 128 128 128 128 
128 128 128 128 128 128 128 128 128 
128 128 128 128 128 128 128 128 128 
128 128 128 128 128 128 128 128 128 
128 128 128 128 128 128 128 128 128 
128 128 128 128 128 128 128 128 128 
128 128 128 128 128 128 128 128 128 
128 128 128 128 128 128 128 128 128 
128 128 128 128 128 128 128 128 128 
128 128 128 128 128 128 128 128 128 
128 128 128 128 128 128 128 128 128 
128 128 128 128 128 128 128 128 128 
128 128 128 128 128 128 128 128 128 
128 128 128 128 128 128 128 128 128 
128 128 128 128 128 128 128 128 128 
128 128 128 128 128 128 128 128 128 
128 128 128 128 128 128 128 128 128 
128 128 128 128 128 128 128 128 128 
128 128 128 128 128 128 128 128 128 
128 128 128 128 128 128 128 128 128 
128 128 128 128 128 128 128 128 128 
128 128 128 128 128 128 128 128 128 
128 128 128 128 128 128 128 128 128 
128 128 128 128 128 128 128 128 128 
128 128 128 128 128 128 128 128 128 
128 128 128 128 128 128 128 128 128 
128 128 128 128 128 128 128 128 128 
128 128 128 128 128 128 128 128 128 
128 128 128 128 128 128 128 128 128 
128 128 128 128 128 128 128 128 128 
128 128 128 128 128 128 128 128 128 
128 128 128 128 128 128 128 128 128 
128 128 128 128 128 128 128 128 128 
128 128 128 128 128 128 128 128 128 
128 128 128 128 128 128 128 128 128 
128 128 128 128 128 128 128 128 128 
128 128 128 128 128 128 128 128 128 
128 128 128 128 128 128 128 128 128 
128 128 128 128 128 128 128 128 128 
128 128 128 128 128 128 128 128 128 
128 128 128 128 128 128 128 128 128 
128 128 128 128 128 128 128 128 128 
128 128 128 128 128 128 128 128 128 
128 128 128 128 128 128 128 128 128 
128 128 128 128 128 128 128 128 128 
128 128 128 128 128 128 128 128 128 
128 128 128 128 128 128 128 128 128 
128 128 128 128 128 128 128 128 128 
128 128 128 128 128 128 128 128 128 
128 128 128 128 128 128 128 128 128 
128 128 128 128 128 128 128 128 128 
128 128 128 128 128 128 128 128 128 
128 128 128 128 128 128 128 128 128 
128 128 128 128 128 128 128 128 128 
128 128 128 128 128 128 128 128 128 
128 128 128 128 128 128 128 128 128 
128 128 128 128 128 128 128 128 128 
128 128 128 128 128 128 128 128 128 
128 128 128 128 128 128 128 128 128 
128 128 128 128 128 128 128 128 128 
128 128 128 128 128 128 128 128 128 
128 128 128 128 128 128 128 128 128 
128 128 128 128 128 128 128 128 128 
128 128 128 128 128 128 128 128 128 
128 128 128 128 128 128 128 128 128 
128 128 128 128 128 128 128 128 128 
128 128 128 128 128 128 128 128 128 
128 128 128 128 128 128 128 128 128 
128 128 128 128 128 128 128 128 128 
128 128 128 128 128 128 128 128 128 
128 128 128 128 128 128 128 128 128 
128 128 128 128 128 128 128 128 128 
128 128 128 128 128 128 128 128 128 
128 128 128 128 128 128 128 128 128 
128 128 128 128 128 128 128 128 128 
128 128 128 128 128 128 128 128 128 
128 128 128 128 128 128 128 128 128 
128 128 128 128 128 128 128 128 128 
128 128 128 128 128 128 128 128 128 
128 128 128 128 128 128 128 128 128 
128 128 128 128 128 128 128 128 128 
128 128 128 128 128 128 128 128 128 
128 128 128 128 128 128 128 128 128 
128 128 128 128 128 128 128 128 128 
128 128 128 128 128 128 128 128 128 
128 128 128 128 128 128 128 128 128 
128 128 128 128 128 128 128 128 128 
128 128 128 128 128 128 128 128 128 
128 128 128 128 128 128 128 128 128 
128 128 128 128 128 128 128 128 128 
128 128 128 128 128 128 128 128 128 
128 128 128 128 128 128 128 128 128 
128 128 128 128 128 128 128 128 128 
128 128 128 128 128 128 128 128 128 
128 128 128 128 128 128 128 128 128 
128 128 128 128 128 128 128 128 128 
128 128 128 128 128 128 128 128 128 
128 128 128 128 128 128 128 128 128 
128 128 128 128 128 128 128 128 128 
128 128 128 128 128 128 128 128 128 
128 128 128 128 128 128 128 128 128 
128 128 128 128 128 128 128 128 128 
128 128 128 128 128 128 128 128 128 
128 128 128 128 128 128 128 128 128 
128 128 128 128 128 128 128 128 128 
128 128 128 128 128 128 128 128 128 
128 128 128 128 128 128 128 128 128 
128 128 128 128 128 128 128 128 128 
128 128 128 128 128 128 128 128 128 
128 128 128 128 128 128 128 128 128 
128 128 128 128 128 128 128 128 128 
128 128 128 128 128 128 128 128 128 
128 128 128 128 128 128 128 128 128 
128 128 128 128 128 128 128 128 128 
128 128 128 128 128 128 128 128 128 
128 128 128 128 128 128 128 128 128 
128 128 128 128 128 128 128 128 128 
128 128 128 128 128 128 128 128 128 
128 128 128 128 128 128 128 128 128 
128 128 128 128 128 128 128 128 128 
128 128 128 128 128 128 128 128 128 
128 128 128 128 128 128 128 128 128 
128 128 128 128 128 128 128 128 128 
128 128 128 128 128 128 128 128 128 
128 128 128 128 128 128 128 128 128 
128 128 128 128 128 128 128 128 128 
128 128 128 128 128 128 128 128 128 
128 128 128 128 128 128 128 128 128 
128 128 128 128 128 128 128 128 128 
128 128 128 128 128 128 128 128 128 
128 128 128 128 128 128 128 128 128 
128 128 128 128 128 128 128 128 128 
128 128 128 128 128 128 128 128 128 
128 128 128 128 128 128 128 128 128 
128 128 128 128 128 128 128 128 128 
128 128 128 128 128 128 128 128 128 
128 128 128 128 128 128 128 128 128 
128 128 128 128 128 128 128 128 128 
128 128 128 128 128 128 128 128 128 
128 128 128 128 128 128 128 128 128 
128 128 128 128 128 128 128 128 128 
128 128 128 128 128 128 128 128 128 
128 128 128 128 128 128 128 128 128 
128 128 128 128 128 128 128 128 128 
128 128 128 128 128 128 128 128 128 
128 128 128 128 128 128 128 128 128 
128 128 128 128 128 128 128 128 128 
128 128 128 128 128 128 128 128 128 
128 128 128 128 128 128 128 128 128 
128 128 128 128 128 128 128 128 128 
128 128 128 128 128 128 128 128 128 
128 128 128 128 128 128 128 128 128 
128 128 128 128 128 128 128 128 128 
128 128 128 128 128 128 128 128 128 
128 128 128 128 128 128 128 128 128 
128 128 128 128 128 128 128 128 128 
128 128 128 128 128 128 128 128 128 
128 128 128 128 128 128 128 128 128 
128 128 128 128 128 128 128 128 128 
128 128 128 128 128 128 128 128 128 
128 128 128 128 128 128 128 128 128 
128 128 128 128 128 128 128 128 128 
128 128 128 128 128 128 128 128 128 
128 128 128 128 128 128 128 128 128 
128 128 128 128 128 128 128 128 128 
128 128 128 128 128 128 128 128 128 
128 128 128 128 128 128 128 128 128 
128 128 128 128 128 128 128 128 128 
128 128 128 128 128 128 128 128 128 
128 128 128 128 128 128 128 128 128 
128 128 128 128 128 128 128 128 128 
128 128 128 128 128 128 128 128 128 
128 128 128 128 128 128 128 128 128 
128 128 128 128 128 128 128 128 128 
128 128 128 128 128 128 128 128 128 
128 128 128 128 128 128 128 128 128 
128 128 128 128 128 128 128 128 128 
128 128 128 128 128 128 128 128 128 
128 128 128 128 128 128 128 128 128 
128 128 128 128 128 128 128 128 128 
128 128 128 128 128 128 128 128 128 
128 128 128 128 128 128 128 128 128 
128 128 128 128 128 128 128 128 128 
128 128 128 128 128 128 128 128 128 
128 128 128 128 128 128 128 128 128 
128 128 128 128 128 128 128 128 128 
128 128 128 128 128 128 128 128 128 
128 128 128 128 128 128 128 128 128 
128 128 128 128 128 128 128 128 128 
128 128 128 128 128 128 128 128 128 
128 128 128 128 128 128 128 128 128 
128 128 128 128 128 128 128 128 128 
128 128 128 128 128 128 128 128 128 
128 128 128 128 128 128 128 128 128 
128 128 128 128 128 128 128 128 128 
128 128 128 128 128 128 128 128 128 
128 128 128 128 128 128 128 128 128 
128 128 128 128 128 128 128 128 128 
128 128 128 128 128 128 128 128 128 
128 128 128 128 128 128 128 128 128 
128 128 128 128 128 128 128 128 128 
128 128 128 128 128 128 128 128 128 
128 128 128 128 128 128 128 128 128 
128 128 128 128 128 128 128 128 128 
128 128 128 128 128 128 128 128 128 
128 128 128 128 128 128 128 128 128 
128 128 128 128 128 128 128 128 128 
128 128 128 128 128 128 128 128 128 
128 128 128 128 128 128 128 128 128 
128 128 128 128 128 128 128 128 128 
128 128 128 128 128 128 128 128 128 
128 128 128 128 128 128 128 128 128 
128 128 128 128 128 128 128 128 128 
128 128 128 128 128 128 128 128 128 
128 128 128 128 128 128 128 128 128 
128 128 128 128 128 128 128 128 128 
128 128 128 128 128 128 128 128 128 
128 128 128 128 128 128 128 128 128 
128 128 128 128 128 128 128 128 128 
128 128 128 128 128 128 128 128 128 
128 128 128 128 128 128 128 128 128 
128 128 128 128 128 128 128 128 128 
128 128 128 128 128 128 128 128 128 
128 128 128 128 128 128 128 128 128 
128 128 128 128 128 128 128 128 128 
128 128 128 128 128 128 128 128 128 
128 128 128 128 128 128 128 128 128 
128 128 128 128 128 128 128 128 128 
128 128 128 128 128 128 128 128 128 
128 128 128 128 128 128 128 128 128 
128 128 128 128 128 128 128 128 128 
128 128 128 128 128 128 128 128 128 
128 128 128 128 128 128 128 128 128 
128 128 128 128 128 128 128 128 128 
128 128 128 128 128 128 128 128 128 
128 128 128 128 128 128 128 128 128 
128 128 128 128 128 128 128 128 128 
128 128 128 128 128 128 128 128 128 
128 128 128 128 128 128 128 128 128 
128 128 128 128 128 128 128 128 128 
128 128 128 128 128 128 128 128 128 
128 128 128 128 128 128 128 128 128 
128 128 128 128 128 128 128 128 128 
128 128 128 128 128 128 128 128 128 
128 128 128 128 128 128 128 128 128 
128 128 128 128 128 128 128 128 128 
128 128 128 128 128 128 128 128 128 
128 128 128 128 128 128 128 128 128 
128 128 128 128 128 128 128 128 128 
128 128 128 128 128 128 128 128 128 
128 128 128 128 128 128 128 128 128 
128 128 128 128 128 128 128 128 128 
128 128 128 128 128 128 128 128 128 
128 128 128 128 128 128 128 128 128 
128 128 128 128 128 128 128 128 128 
128 128 128 128 128 128 128 128 128 
128 128 128 128 128 128 128 128 128 
128 128 128 128 128 128 128 128 128 
128 128 128 128 128 128 128 128 128 
128 128 128 128 128 128 128 128 128 
128 128 128 128 128 128 128 128 128 
128 128 128 128 128 128 128 128 128 
128 128 128 128 128 128 128 128 128 
128 128 128 128 128 128 128 128 128 
128 128 128 128 128 128 128 128 128 
128 128 128 128 128 128 128 128 128 
128 128 128 128 128 128 128 128 128 
128 128 128 128 128 128 128 128 128 
128 128 128 128 128 128 128 128 128 
128 128 128 128 128 128 128 128 128 
128 128 128 128 128 128 128 128 128 
128 128 128 128 128 128 128 128 128 
128 128 128 128 128 128 128 128 128 
128 128 128 128 128 128 128 128 128 
128 128 128 128 128 128 128 128 128 
128 128 128 128 128 128 128 128 128 
128 128 128 128 128 128 128 128 128 
128 128 128 128 128 128 128 128 128 
128 128 128 128 128 128 128 128 128 
128 128 128 128 128 128 128 128 128 
128 128 128 128 128 128 128 128 128 
128 128 128 128 128 128 128 128 128 
128 128 128 128 128 128 128 128 128 
128 128 128 128 128 128 128 128 128 
128 128 128 128 128 128 128 128 128 
128 128 128 128 128 128 128 128 128 
128 128 128 128 128 128 128 128 128 
128 128 128 128 128 128 128 128 128 
128 128 128 128 128 128 128 128 128 
128 128 128 128 128 128 128 128 128 
128 128 128 128 128 128 128 128 128 
128 128 128 128 128 128 128 128 128 
128 128 128 128 128 128 128 128 128 
128 128 128 128 128 128 128 128 128 
128 128 128 128 128 128 128 128 128 
128 128 128 128 128 128 128 128 128 
128 128 128 128 128 128 128 128 128 
128 128 128 128 128 128 128 128 128 
128 128 128 128 128 128 128 128 128 
128 128 128 128 128 128 128 128 128 
128 128 128 128 128 128 128 128 128 
128 128 128 128 128 128 128 128 128 
128 128 128 128 128 128 128 128 128 
128 128 128 128 128 128 128 128 128 
128 128 128 128 128 128 128 128 128 
128 128 128 128 128 128 128 128 128 
128 128 128 128 128 128 128 128 128 
128 128 128 128 128 128 128 128 128 
128 128 128 128 128 128 128 128 128 
128 128 128 128 128 128 128 128 128 
128 128 128 128 128 128 128 128 128 
128 128 128 128 128 128 128 128 128 
128 128 128 128 128 128 128 128 128 
128 128 128 128 128 128 128 128 128 
128 128 128 128 128 128 128 128 128 
128 128 128 128 128 128 128 128 128 
128 128 128 128 128 128 128 128 128 
128 128 128 128 128 128 128 128 128 
128 128 128 128 128 128 128 128 128 
128 128 128 128 128 128 128 128 128 
128 128 128 128 128 128 128 128 128 
128 128 128 128 128 128 128 128 128 
128 128 128 128 128 128 128 128 128 
128 128 128 128 128 128 128 128 128 
128 128 128 128 128 128 128 128 128 
128 128 128 128 128 128 128 128 128 
128 128 128 128 128 128 128 128 128 
128 128 128 128 128 128 128 128 128 
128 128 128 128 128 128 128 128 128 
128 128 128 128 128 128 128 128 128 
128 128 128 128 128 128 128 128 128 
128 128 128 128 128 128 128 128 128 
128 128 128 128 128 128 128 128 128 
128 128 128 128 128 128 128 128 128 
128 128 128 128 128 128 128 128 128 
128 128 128 128 128 128 128 128 128 
128 128 128 128 128 128 128 128 128 
128 128 128 128 128 128 128 128 128 
128 128 128 128 128 128 128 128 128 
128 128 128 128 128 128 128 128 128 
128 128 128 128 128 128 128 128 128 
128 128 128 128 128 128 128 128 128 
128 128 128 128 128 128 128 128 128 
128 128 128 128 128 128 128 128 128 
128 128 128 128 128 128 128 128 128 
128 128 128 128 128 128 128 128 128 
128 128 128 128 128 128 128 128 128 
128 128 128 128 128 128 128 128 128 
128 128 128 128 128 128 128 128 128 
128 128 128 128 128 128 128 128 128 
128 128 128 128 128 128 128 128 128 
128 128 128 128 128 128 128 128 128 
128 128 128 128 128 128 128 128 128 
128 128 128 128 128 128 128 128 128 
128 128 128 128 128 128 128 128 128 
128 128 128 128 128 128 128 128 128 
128 128 128 128 128 128 128 128 128 
128 128 128 128 128 128 128 128 128 
128 128 128 128 128 128 128 128 128 
128 128 128 128 128 128 128 128 128 
128 128 128 128 128 128 128 128 128 
128 128 128 128 128 128 128 128 128 
128 128 128 128 128 128 128 128 128 
128 128 128 128 128 128 128 128 128 
128 128 128 128 128 128 128 128 128 
128 128 128 128 128 128 128 128 128 
128 128 128 128 128 128 128 128 128 
128 128 128 128 128 128 128 128 128 
128 128 128 128 128 128 128 128 128 
128 128 128 128 128 128 128 128 128 
128 128 128 128 128 128 128 128 128 
128 128 128 128 128 128 128 128 128 
128 128 128 128 128 128 128 128 128 
128 128 128 128 128 128 128 128 128 
128 128 128 128 128 128 128 128 128 
128 128 128 128 128 128 128 128 128 
128 128 128 128 128 128 128 128 128 
128 128 128 128 128 128 128 128 128 
128 128 128 128 128 128 128 128 128 
128 128 128 128 128 128 128 128 128 
128 128 128 128 128 128 128 128 128 
128 128 128 128 128 128 128 128 128 
128 128 128 128 128 128 128 128 128 
128 128 128 128 128 128 128 128 128 
128 128 128 128 128 128 128 128 128 
128 128 128 128 128 128 128 128 128 
128 128 128 128 128 128 128 128 128 
128 128 128 128 128 128 128 128 128 
128 128 128 128 128 128 128 128 128 
128 128 128 128 128 128 128 128 128 
128 128 128 128 128 128 128 128 128 
128 128 128 128 128 128 128 128 128 
128 128 128 128 128 128 128 128 128 
128 128 128 128 128 128 128 128 128 
128 128 128 128 128 128 128 128 128 
128 128 128 128 128 128 128 128 128 
128 128 128 128 128 128 128 128 128 
128 128 128 128 128 128 128 128 128 
128 128 128 128 128 128 128 128 128 
128 128 128 128 128 128 128 128 128 
128 128 128 128 128 128 128 128 128 
128 128 128 128 128 128 128 128 128 
128 128 128 128 128 128 128 128 128 
128 128 128 128 128 128 128 128 128 
128 128 128 128 128 128 128 128 128 
128 128 128 128 128 128 128 128 128 
128 128 128 128 128 128 128 128 128 
128 128 128 128 128 128 128 128 128 
128 128 128 128 128 128 128 128 128 
128 128 128 128 128 128 128 128 128 
128 128 128 128 128 128 128 128 128 
128 128 128 128 128 128 128 128 128 
128 128 128 128 128 128 128 128 128 
128 128 128 128 128 128 128 128 128 
128 128 128 128 128 128 128 128 128 
128 128 128 128 128 128 128 128 128 
128 128 128 128 128 128 128 128 128 
128 128 128 128 128 128 128 128 128 
128 128 128 128 128 128 128 128 128 
128 128 128 128 128 128 128 128 128 
128 128 128 128 128 128 128 128 128 
128 128 128 128 128 128 128 128 128 
128 128 128 128 128 128 128 128 128 
128 128 128 128 128 128 128 128 128 
128 128 128 128 128 128 128 128 128 
128 128 128 128 128 128 128 128 128 
128 128 128 128 128 128 128 128 128 
128 128 128 128 128 128 128 128 128 
128 128 128 128 128 128 128 128 128 
128 128 128 128 128 128 128 128 128 
128 128 128 128 128 128 128 128 128 
128 128 128 128 128 128 128 128 128 
128 128 128 128 128 128 128 128 128 
128 128 128 128 128 128 128 128 128 
128 128 128 128 128 128 128 128 128 
128 128 128 128 128 128 128 128 128 
128 128 128 128 128 128 128 128 128 
128 128 128 128 128 128 128 128 128 
128 128 128 128 128 128 128 128 128 
128 128 128 128 128 128 128 128 128 
128 128 128 128 128 128 128 128 128 
128 128 128 128 128 128 128 128 128 
128 128 128 128 128 128 128 128 128 
128 128 128 128 128 128 128 128 128 
128 128 128 128 128 128 128 128 128 
128 128 128 128 128 128 128 128 128 
128 128 128 128 128 128 128 128 128 
128 128 128 128 128 128 128 128 128 
128 128 128 128 128 128 128 128 128 
128 128 128 128 128 128 128 128 128 
128 128 128 128 128 128 128 128 128 
128 128 128 128 128 128 128 128 128 
128 128 128 128 128 128 128 128 128 
128 128 128 128 128 128 128 128 128 
128 128 128 128 128 128 128 128 128 
128 128 128 128 128 128 128 128 128 
128 128 128 128 128 128 128 128 128 
128 128 128 128 128 128 128 128 128 
128 128 128 128 128 128 128 128 128 
128 128 128 128 128 128 128 128 128 
128 128 128 128 128 128 128 128 128 
128 128 128 128 128 128 128 128 128 
128 128 128 128 128 128 128 128 128 
128 128 128 128 128 128 128 128 128 
128 128 128 128 128 128 128 128 128 
128 128 128 128 128 128 128 128 128 
128 128 128 128 128 128 128 128 128 
128 128 128 128 128 128 128 128 128 
128 128 128 128 128 128 128 128 128 
128 128 128 128 128 128 128 128 128 
128 128 128 128 128 128 128 128 128 
128 128 128 128 128 128 128 128 128 
128 128 128 128 128 128 128 128 128 
128 128 128 128 128 128 128 128 128 
128 128 128 128 128 128 128 128 128 
128 128 128 128 128 128 128 128 128 
128 128 128 128 128 128 128 128 128 
128 128 128 128 128 128 128 128 128 
128 128 128 128 128 128 128 128 128 
128 128 128 128 128 128 128 128 128 
128 128 128 128 128 128 128 128 128 
128 128 128 128 128 128 128 128 128 
128 128 128 128 128 128 128 128 128 
128 128 128 128 128 128 128 128 128 
128 128 128 128 128 128 128 128 128 
128 128 128 128 128 128 128 128 128 
128 128 128 128 128 128 128 128 128 
128 128 128 128 128 128 128 128 128 
128 128 128 128 128 128 128 128 128 
128 128 128 128 128 128 128 128 128 
128 128 128 128 128 128 128 128 128 